 Entering Gaussian System, Link 0=g16
 Initial command:
 /share/apps/gaussian/g16/l1.exe "/tmp/55604.mgr/Gau-80919.inp" -scrdir="/tmp/55604.mgr/"
 Entering Link 1 = /share/apps/gaussian/g16/l1.exe PID=     80920.
  
 Copyright (c) 1988,1990,1992,1993,1995,1998,2003,2009,2016,
            Gaussian, Inc.  All Rights Reserved.
  
 This is part of the Gaussian(R) 16 program.  It is based on
 the Gaussian(R) 09 system (copyright 2009, Gaussian, Inc.),
 the Gaussian(R) 03 system (copyright 2003, Gaussian, Inc.),
 the Gaussian(R) 98 system (copyright 1998, Gaussian, Inc.),
 the Gaussian(R) 94 system (copyright 1995, Gaussian, Inc.),
 the Gaussian 92(TM) system (copyright 1992, Gaussian, Inc.),
 the Gaussian 90(TM) system (copyright 1990, Gaussian, Inc.),
 the Gaussian 88(TM) system (copyright 1988, Gaussian, Inc.),
 the Gaussian 86(TM) system (copyright 1986, Carnegie Mellon
 University), and the Gaussian 82(TM) system (copyright 1983,
 Carnegie Mellon University). Gaussian is a federally registered
 trademark of Gaussian, Inc.
  
 This software contains proprietary and confidential information,
 including trade secrets, belonging to Gaussian, Inc.
  
 This software is provided under written license and may be
 used, copied, transmitted, or stored only in accord with that
 written license.
  
 The following legend is applicable only to US Government
 contracts under FAR:
  
                    RESTRICTED RIGHTS LEGEND
  
 Use, reproduction and disclosure by the US Government is
 subject to restrictions as set forth in subparagraphs (a)
 and (c) of the Commercial Computer Software - Restricted
 Rights clause in FAR 52.227-19.
  
 Gaussian, Inc.
 340 Quinnipiac St., Bldg. 40, Wallingford CT 06492
  
  
 ---------------------------------------------------------------
 Warning -- This program may not be used in any manner that
 competes with the business of Gaussian, Inc. or will provide
 assistance to any competitor of Gaussian, Inc.  The licensee
 of this program is prohibited from giving any competitor of
 Gaussian, Inc. access to this program.  By using this program,
 the user acknowledges that Gaussian, Inc. is engaged in the
 business of creating and licensing software in the field of
 computational chemistry and represents and warrants to the
 licensee that it is not a competitor of Gaussian, Inc. and that
 it will not use this program in any manner prohibited above.
 ---------------------------------------------------------------
  

 Cite this work as:
 Gaussian 16, Revision A.03,
 M. J. Frisch, G. W. Trucks, H. B. Schlegel, G. E. Scuseria, 
 M. A. Robb, J. R. Cheeseman, G. Scalmani, V. Barone, 
 G. A. Petersson, H. Nakatsuji, X. Li, M. Caricato, A. V. Marenich, 
 J. Bloino, B. G. Janesko, R. Gomperts, B. Mennucci, H. P. Hratchian, 
 J. V. Ortiz, A. F. Izmaylov, J. L. Sonnenberg, D. Williams-Young, 
 F. Ding, F. Lipparini, F. Egidi, J. Goings, B. Peng, A. Petrone, 
 T. Henderson, D. Ranasinghe, V. G. Zakrzewski, J. Gao, N. Rega, 
 G. Zheng, W. Liang, M. Hada, M. Ehara, K. Toyota, R. Fukuda, 
 J. Hasegawa, M. Ishida, T. Nakajima, Y. Honda, O. Kitao, H. Nakai, 
 T. Vreven, K. Throssell, J. A. Montgomery, Jr., J. E. Peralta, 
 F. Ogliaro, M. J. Bearpark, J. J. Heyd, E. N. Brothers, K. N. Kudin, 
 V. N. Staroverov, T. A. Keith, R. Kobayashi, J. Normand, 
 K. Raghavachari, A. P. Rendell, J. C. Burant, S. S. Iyengar, 
 J. Tomasi, M. Cossi, J. M. Millam, M. Klene, C. Adamo, R. Cammi, 
 J. W. Ochterski, R. L. Martin, K. Morokuma, O. Farkas, 
 J. B. Foresman, and D. J. Fox, Gaussian, Inc., Wallingford CT, 2016.
 
 ******************************************
 Gaussian 16:  ES64L-G16RevA.03 25-Dec-2016
                22-Sep-2023 
 ******************************************
 %nprocshared=6
 Will use up to    6 processors via shared memory.
 %mem=6GB
 -----------------
 # M062X/def2TZVPP
 -----------------
 1/38=1,172=1/1;
 2/12=2,17=6,18=5,40=1/2;
 3/5=44,7=202,11=2,25=1,30=1,74=-55/1,2,3;
 4//1;
 5/5=2,38=5/2;
 6/7=2,8=2,9=2,10=2,28=1/1;
 99/5=1,9=1/99;
 -------------------
 tmpdir/M2_ref_7.gjf
 -------------------
 Symbolic Z-matrix:
 Charge =  0 Multiplicity = 1
 B                    -0.17753  -0.0258   -0.24407 
 O                    -1.13872   0.70486   0.39095 
 H                     0.20989  -1.05159   0.14797 
 H                     0.23575   0.36662  -1.21842 
 H                    -1.52368   0.40592   1.22996 
 
                          Input orientation:                          
 ---------------------------------------------------------------------
 Center     Atomic      Atomic             Coordinates (Angstroms)
 Number     Number       Type             X           Y           Z
 ---------------------------------------------------------------------
      1          5           0       -0.177531   -0.025800   -0.244072
      2          8           0       -1.138724    0.704861    0.390950
      3          1           0        0.209890   -1.051594    0.147969
      4          1           0        0.235749    0.366619   -1.218424
      5          1           0       -1.523678    0.405920    1.229958
 ---------------------------------------------------------------------
                    Distance matrix (angstroms):
                    1          2          3          4          5
     1  B    0.000000
     2  O    1.364188   0.000000
     3  H    1.164493   2.227764   0.000000
     4  H    1.128785   2.143284   1.969525   0.000000
     5  H    2.042366   0.970305   2.510041   3.015245   0.000000
 Stoichiometry    BH3O
 Framework group  C1[X(BH3O)]
 Deg. of freedom     9
 Full point group                 C1      NOp   1
 Largest Abelian subgroup         C1      NOp   1
 Largest concise Abelian subgroup C1      NOp   1
                         Standard orientation:                         
 ---------------------------------------------------------------------
 Center     Atomic      Atomic             Coordinates (Angstroms)
 Number     Number       Type             X           Y           Z
 ---------------------------------------------------------------------
      1          5           0        0.726549    0.026778   -0.006188
      2          8           0       -0.629891   -0.118158    0.002281
      3          1           0        1.259615    1.061921    0.012888
      4          1           0        1.363794   -0.904837    0.006783
      5          1           0       -1.217026    0.654291   -0.006975
 ---------------------------------------------------------------------
 Rotational constants (GHZ):         196.4825942          29.4802318          25.6358285
 Standard basis: def2TZVPP (5D, 7F)
 There are   117 symmetry adapted cartesian basis functions of A   symmetry.
 There are   104 symmetry adapted basis functions of A   symmetry.
   104 basis functions,   153 primitive gaussians,   117 cartesian basis functions
     8 alpha electrons        8 beta electrons
       nuclear repulsion energy        30.3213936605 Hartrees.
 NAtoms=    5 NActive=    5 NUniq=    5 SFac= 1.00D+00 NAtFMM=   60 NAOKFM=F Big=F
 Integral buffers will be    131072 words long.
 Raffenetti 2 integral format.
 Two-electron integral symmetry is turned on.
 One-electron integrals computed using PRISM.
   1 Symmetry operations used in ECPInt.
 ECPInt:  NShTT=     820 NPrTT=    2133 LenC2=     821 LenP2D=    1993.
 LDataN:  DoStor=T MaxTD1= 6 Len=  172
 NBasis=   104 RedAO= T EigKep=  6.25D-04  NBF=   104
 NBsUse=   104 1.00D-06 EigRej= -1.00D+00 NBFU=   104
 ExpMin= 6.06D-02 ExpMax= 2.70D+04 ExpMxC= 9.22D+02 IAcc=3 IRadAn=         5 AccDes= 0.00D+00
 Harris functional with IExCor= 1009 and IRadAn=       5 diagonalized for initial guess.
 HarFok:  IExCor= 1009 AccDes= 0.00D+00 IRadAn=         5 IDoV= 1 UseB2=F ITyADJ=14
 ICtDFT=  3500011 ScaDFX=  1.000000  1.000000  1.000000  1.000000
 FoFCou: FMM=F IPFlag=           0 FMFlag=      100000 FMFlg1=           0
         NFxFlg=           0 DoJE=T BraDBF=F KetDBF=T FulRan=T
         wScrn=  0.000000 ICntrl=       500 IOpCl=  0 I1Cent=   200000004 NGrid=           0
         NMat0=    1 NMatS0=      1 NMatT0=    0 NMatD0=    1 NMtDS0=    0 NMtDT0=    0
 Petite list used in FoFCou.
 Keep R1 ints in memory in canonical form, NReq=20564853.
 Requested convergence on RMS density matrix=1.00D-08 within 128 cycles.
 Requested convergence on MAX density matrix=1.00D-06.
 Requested convergence on             energy=1.00D-06.
 No special actions if energy rises.
 Integral accuracy reduced to 1.0D-05 until final iterations.
 Initial convergence to 1.0D-05 achieved.  Increase integral accuracy.
 SCF Done:  E(RM062X) =  -101.904468387     A.U. after   12 cycles
            NFock= 12  Conv=0.59D-08     -V/T= 2.0042

 **********************************************************************

            Population analysis using the SCF density.

 **********************************************************************

 Orbital symmetries:
       Occupied  (A) (A) (A) (A) (A) (A) (A) (A)
       Virtual   (A) (A) (A) (A) (A) (A) (A) (A) (A) (A) (A) (A)
                 (A) (A) (A) (A) (A) (A) (A) (A) (A) (A) (A) (A)
                 (A) (A) (A) (A) (A) (A) (A) (A) (A) (A) (A) (A)
                 (A) (A) (A) (A) (A) (A) (A) (A) (A) (A) (A) (A)
                 (A) (A) (A) (A) (A) (A) (A) (A) (A) (A) (A) (A)
                 (A) (A) (A) (A) (A) (A) (A) (A) (A) (A) (A) (A)
                 (A) (A) (A) (A) (A) (A) (A) (A) (A) (A) (A) (A)
                 (A) (A) (A) (A) (A) (A) (A) (A) (A) (A) (A) (A)
 The electronic state is 1-A.
 Alpha  occ. eigenvalues --  -19.64960  -7.05594  -1.14920  -0.66119  -0.53577
 Alpha  occ. eigenvalues --   -0.48416  -0.44713  -0.37689
 Alpha virt. eigenvalues --    0.01778   0.05025   0.09388   0.11729   0.15019
 Alpha virt. eigenvalues --    0.18076   0.19312   0.23697   0.35856   0.39969
 Alpha virt. eigenvalues --    0.40281   0.46678   0.51075   0.51395   0.52281
 Alpha virt. eigenvalues --    0.55903   0.57611   0.66230   0.70984   0.73040
 Alpha virt. eigenvalues --    0.77261   0.78606   0.82388   0.85293   0.93931
 Alpha virt. eigenvalues --    0.94658   1.01051   1.07102   1.08550   1.25734
 Alpha virt. eigenvalues --    1.27099   1.35057   1.47264   1.50750   1.60091
 Alpha virt. eigenvalues --    1.65497   1.77490   1.84745   1.86149   1.90558
 Alpha virt. eigenvalues --    1.93119   2.01109   2.03802   2.11074   2.14732
 Alpha virt. eigenvalues --    2.21709   2.24334   2.29209   2.33795   2.42453
 Alpha virt. eigenvalues --    2.47392   2.73254   2.88271   2.89263   3.06902
 Alpha virt. eigenvalues --    3.19455   3.26962   3.27872   3.32711   3.35097
 Alpha virt. eigenvalues --    3.51407   3.52506   3.61650   3.67799   3.79540
 Alpha virt. eigenvalues --    3.83140   3.89615   3.95125   4.02775   4.03914
 Alpha virt. eigenvalues --    4.13347   4.16008   4.21866   4.23051   4.47117
 Alpha virt. eigenvalues --    4.51132   4.59041   4.74928   4.79306   4.88141
 Alpha virt. eigenvalues --    4.99966   5.29129   5.37941   5.61454   5.68024
 Alpha virt. eigenvalues --    5.79187   6.43637   6.54477   6.61666   6.68838
 Alpha virt. eigenvalues --    6.70456   6.88454   7.24207   7.39494  15.97083
 Alpha virt. eigenvalues --   43.72249
          Condensed to atoms (all electrons):
               1          2          3          4          5
     1  B    3.627314   0.470349   0.436629   0.418530  -0.051004
     2  O    0.470349   7.593536  -0.041124  -0.015265   0.339339
     3  H    0.436629  -0.041124   0.671801  -0.044874  -0.012308
     4  H    0.418530  -0.015265  -0.044874   0.617041   0.007838
     5  H   -0.051004   0.339339  -0.012308   0.007838   0.474088
 Mulliken charges:
               1
     1  B    0.098182
     2  O   -0.346835
     3  H   -0.010124
     4  H    0.016730
     5  H    0.242047
 Sum of Mulliken charges =  -0.00000
 Mulliken charges with hydrogens summed into heavy atoms:
               1
     1  B    0.104789
     2  O   -0.104789
 Electronic spatial extent (au):  <R**2>=             75.7862
 Charge=             -0.0000 electrons
 Dipole moment (field-independent basis, Debye):
    X=             -0.6275    Y=              1.3698    Z=             -0.0443  Tot=              1.5073
 Quadrupole moment (field-independent basis, Debye-Ang):
   XX=            -12.3695   YY=            -13.3524   ZZ=            -12.6598
   XY=             -2.1617   XZ=             -0.0004   YZ=             -0.0161
 Traceless Quadrupole moment (field-independent basis, Debye-Ang):
   XX=              0.4244   YY=             -0.5585   ZZ=              0.1341
   XY=             -2.1617   XZ=             -0.0004   YZ=             -0.0161
 Octapole moment (field-independent basis, Debye-Ang**2):
  XXX=            -11.3050  YYY=              0.3045  ZZZ=             -0.0267  XYY=             -4.2273
  XXY=              2.4026  XXZ=             -0.0299  XZZ=             -1.4664  YZZ=              0.0253
  YYZ=              0.0075  XYZ=              0.0119
 Hexadecapole moment (field-independent basis, Debye-Ang**3):
 XXXX=            -66.1344 YYYY=            -27.8111 ZZZZ=            -12.1803 XXXY=             -4.2795
 XXXZ=              0.0312 YYYX=             -2.4828 YYYZ=             -0.0156 ZZZX=             -0.0258
 ZZZY=             -0.0183 XXYY=            -15.6960 XXZZ=            -13.2596 YYZZ=             -6.9381
 XXYZ=             -0.0237 YYXZ=              0.0300 ZZXY=             -0.4594
 N-N= 3.032139366050D+01 E-N=-2.997555131920D+02  KE= 1.014806668386D+02
 1\1\GINC-NODE85\SP\RM062X\def2TZVPP\B1H3O1\YANZ\22-Sep-2023\0\\# M062X
 /def2TZVPP\\tmpdir/M2_ref_7.gjf\\0,1\B,0,-0.17753149,-0.02579991,-0.24
 407203\O,0,-1.13872374,0.70486068,0.3909496\H,0,0.2098899,-1.05159398,
 0.14796895\H,0,0.23574877,0.36661949,-1.21842394\H,0,-1.52367808,0.405
 92018,1.2299583\\Version=ES64L-G16RevA.03\State=1-A\HF=-101.9044684\RM
 SD=5.949e-09\Dipole=-0.146589,-0.2784886,0.5026355\Quadrupole=0.147157
 2,-1.2533902,1.106233,0.7920796,-0.8149193,0.1559881\PG=C01 [X(B1H3O1)
 ]\\@


 A successful marriage requires falling in love
 many times, always with the same person.
                           -- Mignon McLaughlin
 Job cpu time:       0 days  0 hours  0 minutes 33.0 seconds.
 Elapsed time:       0 days  0 hours  0 minutes  5.9 seconds.
 File lengths (MBytes):  RWF=     10 Int=      0 D2E=      0 Chk=      2 Scr=      1
 Normal termination of Gaussian 16 at Fri Sep 22 16:47:36 2023.
