 Entering Gaussian System, Link 0=g16
 Initial command:
 /share/apps/gaussian/g16/l1.exe "/tmp/55604.mgr/Gau-81195.inp" -scrdir="/tmp/55604.mgr/"
 Entering Link 1 = /share/apps/gaussian/g16/l1.exe PID=     81196.
  
 Copyright (c) 1988,1990,1992,1993,1995,1998,2003,2009,2016,
            Gaussian, Inc.  All Rights Reserved.
  
 This is part of the Gaussian(R) 16 program.  It is based on
 the Gaussian(R) 09 system (copyright 2009, Gaussian, Inc.),
 the Gaussian(R) 03 system (copyright 2003, Gaussian, Inc.),
 the Gaussian(R) 98 system (copyright 1998, Gaussian, Inc.),
 the Gaussian(R) 94 system (copyright 1995, Gaussian, Inc.),
 the Gaussian 92(TM) system (copyright 1992, Gaussian, Inc.),
 the Gaussian 90(TM) system (copyright 1990, Gaussian, Inc.),
 the Gaussian 88(TM) system (copyright 1988, Gaussian, Inc.),
 the Gaussian 86(TM) system (copyright 1986, Carnegie Mellon
 University), and the Gaussian 82(TM) system (copyright 1983,
 Carnegie Mellon University). Gaussian is a federally registered
 trademark of Gaussian, Inc.
  
 This software contains proprietary and confidential information,
 including trade secrets, belonging to Gaussian, Inc.
  
 This software is provided under written license and may be
 used, copied, transmitted, or stored only in accord with that
 written license.
  
 The following legend is applicable only to US Government
 contracts under FAR:
  
                    RESTRICTED RIGHTS LEGEND
  
 Use, reproduction and disclosure by the US Government is
 subject to restrictions as set forth in subparagraphs (a)
 and (c) of the Commercial Computer Software - Restricted
 Rights clause in FAR 52.227-19.
  
 Gaussian, Inc.
 340 Quinnipiac St., Bldg. 40, Wallingford CT 06492
  
  
 ---------------------------------------------------------------
 Warning -- This program may not be used in any manner that
 competes with the business of Gaussian, Inc. or will provide
 assistance to any competitor of Gaussian, Inc.  The licensee
 of this program is prohibited from giving any competitor of
 Gaussian, Inc. access to this program.  By using this program,
 the user acknowledges that Gaussian, Inc. is engaged in the
 business of creating and licensing software in the field of
 computational chemistry and represents and warrants to the
 licensee that it is not a competitor of Gaussian, Inc. and that
 it will not use this program in any manner prohibited above.
 ---------------------------------------------------------------
  

 Cite this work as:
 Gaussian 16, Revision A.03,
 M. J. Frisch, G. W. Trucks, H. B. Schlegel, G. E. Scuseria, 
 M. A. Robb, J. R. Cheeseman, G. Scalmani, V. Barone, 
 G. A. Petersson, H. Nakatsuji, X. Li, M. Caricato, A. V. Marenich, 
 J. Bloino, B. G. Janesko, R. Gomperts, B. Mennucci, H. P. Hratchian, 
 J. V. Ortiz, A. F. Izmaylov, J. L. Sonnenberg, D. Williams-Young, 
 F. Ding, F. Lipparini, F. Egidi, J. Goings, B. Peng, A. Petrone, 
 T. Henderson, D. Ranasinghe, V. G. Zakrzewski, J. Gao, N. Rega, 
 G. Zheng, W. Liang, M. Hada, M. Ehara, K. Toyota, R. Fukuda, 
 J. Hasegawa, M. Ishida, T. Nakajima, Y. Honda, O. Kitao, H. Nakai, 
 T. Vreven, K. Throssell, J. A. Montgomery, Jr., J. E. Peralta, 
 F. Ogliaro, M. J. Bearpark, J. J. Heyd, E. N. Brothers, K. N. Kudin, 
 V. N. Staroverov, T. A. Keith, R. Kobayashi, J. Normand, 
 K. Raghavachari, A. P. Rendell, J. C. Burant, S. S. Iyengar, 
 J. Tomasi, M. Cossi, J. M. Millam, M. Klene, C. Adamo, R. Cammi, 
 J. W. Ochterski, R. L. Martin, K. Morokuma, O. Farkas, 
 J. B. Foresman, and D. J. Fox, Gaussian, Inc., Wallingford CT, 2016.
 
 ******************************************
 Gaussian 16:  ES64L-G16RevA.03 25-Dec-2016
                22-Sep-2023 
 ******************************************
 %nprocshared=6
 Will use up to    6 processors via shared memory.
 %mem=6GB
 -----------------
 # M062X/def2TZVPP
 -----------------
 1/38=1,172=1/1;
 2/12=2,17=6,18=5,40=1/2;
 3/5=44,7=202,11=2,25=1,30=1,74=-55/1,2,3;
 4//1;
 5/5=2,38=5/2;
 6/7=2,8=2,9=2,10=2,28=1/1;
 99/5=1,9=1/99;
 --------------------
 tmpdir/M2_ref_15.gjf
 --------------------
 Symbolic Z-matrix:
 Charge =  0 Multiplicity = 1
 N                     1.57434  -1.83415  -0.38228 
 C                     0.34766  -1.41637   0.28738 
 H                    -0.48403  -2.13238   0.17629 
 H                     1.56487  -1.54988  -1.35239 
 H                     1.70523  -2.83468  -0.34612 
 H                    -0.01353  -0.46004  -0.07811 
 H                     0.52394  -1.35096   1.36634 
 
                          Input orientation:                          
 ---------------------------------------------------------------------
 Center     Atomic      Atomic             Coordinates (Angstroms)
 Number     Number       Type             X           Y           Z
 ---------------------------------------------------------------------
      1          7           0        1.574338   -1.834148   -0.382280
      2          6           0        0.347659   -1.416372    0.287381
      3          1           0       -0.484033   -2.132381    0.176291
      4          1           0        1.564865   -1.549882   -1.352388
      5          1           0        1.705229   -2.834676   -0.346120
      6          1           0       -0.013529   -0.460038   -0.078114
      7          1           0        0.523937   -1.350958    1.366342
 ---------------------------------------------------------------------
                    Distance matrix (angstroms):
                    1          2          3          4          5
     1  N    0.000000
     2  C    1.458672   0.000000
     3  H    2.153564   1.103052   0.000000
     4  H    1.010943   2.046523   2.621860   0.000000
     5  H    1.009701   2.062985   2.357753   1.637979   0.000000
     6  H    2.121796   1.085641   1.755798   2.302794   2.943613
     7  H    2.096305   1.095222   1.744376   2.917978   2.555268
                    6          7
     6  H    0.000000
     7  H    1.780186   0.000000
 Stoichiometry    CH5N
 Framework group  C1[X(CH5N)]
 Deg. of freedom    15
 Full point group                 C1      NOp   1
 Largest Abelian subgroup         C1      NOp   1
 Largest concise Abelian subgroup C1      NOp   1
                         Standard orientation:                         
 ---------------------------------------------------------------------
 Center     Atomic      Atomic             Coordinates (Angstroms)
 Number     Number       Type             X           Y           Z
 ---------------------------------------------------------------------
      1          7           0       -0.748965   -0.003239   -0.115958
      2          6           0        0.704266    0.006344    0.009546
      3          1           0        1.069266   -0.401831    0.967091
      4          1           0       -1.147567    0.828181    0.298607
      5          1           0       -1.163503   -0.809445    0.328661
      6          1           0        1.116820    1.006511   -0.080354
      7          1           0        1.142146   -0.638809   -0.759576
 ---------------------------------------------------------------------
 Rotational constants (GHZ):         104.7036885          22.8779434          21.8234220
 Standard basis: def2TZVPP (5D, 7F)
 There are   147 symmetry adapted cartesian basis functions of A   symmetry.
 There are   132 symmetry adapted basis functions of A   symmetry.
   132 basis functions,   187 primitive gaussians,   147 cartesian basis functions
     9 alpha electrons        9 beta electrons
       nuclear repulsion energy        42.0443635138 Hartrees.
 NAtoms=    7 NActive=    7 NUniq=    7 SFac= 1.00D+00 NAtFMM=   60 NAOKFM=F Big=F
 Integral buffers will be    131072 words long.
 Raffenetti 2 integral format.
 Two-electron integral symmetry is turned on.
 One-electron integrals computed using PRISM.
   1 Symmetry operations used in ECPInt.
 ECPInt:  NShTT=    1378 NPrTT=    3299 LenC2=    1378 LenP2D=    3097.
 LDataN:  DoStor=T MaxTD1= 6 Len=  172
 NBasis=   132 RedAO= T EigKep=  5.41D-04  NBF=   132
 NBsUse=   132 1.00D-06 EigRej= -1.00D+00 NBFU=   132
 ExpMin= 9.52D-02 ExpMax= 1.97D+04 ExpMxC= 6.73D+02 IAcc=3 IRadAn=         5 AccDes= 0.00D+00
 Harris functional with IExCor= 1009 and IRadAn=       5 diagonalized for initial guess.
 HarFok:  IExCor= 1009 AccDes= 0.00D+00 IRadAn=         5 IDoV= 1 UseB2=F ITyADJ=14
 ICtDFT=  3500011 ScaDFX=  1.000000  1.000000  1.000000  1.000000
 FoFCou: FMM=F IPFlag=           0 FMFlag=      100000 FMFlg1=           0
         NFxFlg=           0 DoJE=T BraDBF=F KetDBF=T FulRan=T
         wScrn=  0.000000 ICntrl=       500 IOpCl=  0 I1Cent=   200000004 NGrid=           0
         NMat0=    1 NMatS0=      1 NMatT0=    0 NMatD0=    1 NMtDS0=    0 NMtDT0=    0
 Petite list used in FoFCou.
 Keep R1 ints in memory in canonical form, NReq=44362774.
 Requested convergence on RMS density matrix=1.00D-08 within 128 cycles.
 Requested convergence on MAX density matrix=1.00D-06.
 Requested convergence on             energy=1.00D-06.
 No special actions if energy rises.
 Integral accuracy reduced to 1.0D-05 until final iterations.
 Initial convergence to 1.0D-05 achieved.  Increase integral accuracy.
 SCF Done:  E(RM062X) =  -95.8435962963     A.U. after   11 cycles
            NFock= 11  Conv=0.80D-08     -V/T= 2.0053

 **********************************************************************

            Population analysis using the SCF density.

 **********************************************************************

 Orbital symmetries:
       Occupied  (A) (A) (A) (A) (A) (A) (A) (A) (A)
       Virtual   (A) (A) (A) (A) (A) (A) (A) (A) (A) (A) (A) (A)
                 (A) (A) (A) (A) (A) (A) (A) (A) (A) (A) (A) (A)
                 (A) (A) (A) (A) (A) (A) (A) (A) (A) (A) (A) (A)
                 (A) (A) (A) (A) (A) (A) (A) (A) (A) (A) (A) (A)
                 (A) (A) (A) (A) (A) (A) (A) (A) (A) (A) (A) (A)
                 (A) (A) (A) (A) (A) (A) (A) (A) (A) (A) (A) (A)
                 (A) (A) (A) (A) (A) (A) (A) (A) (A) (A) (A) (A)
                 (A) (A) (A) (A) (A) (A) (A) (A) (A) (A) (A) (A)
                 (A) (A) (A) (A) (A) (A) (A) (A) (A) (A) (A) (A)
                 (A) (A) (A) (A) (A) (A) (A) (A) (A) (A) (A) (A)
                 (A) (A) (A)
 The electronic state is 1-A.
 Alpha  occ. eigenvalues --  -14.72124 -10.54992  -0.97795  -0.74747  -0.56475
 Alpha  occ. eigenvalues --   -0.50562  -0.46594  -0.43398  -0.30097
 Alpha virt. eigenvalues --    0.06424   0.11002   0.12118   0.16044   0.17121
 Alpha virt. eigenvalues --    0.19825   0.25815   0.26928   0.32160   0.39225
 Alpha virt. eigenvalues --    0.40909   0.41691   0.45155   0.48974   0.50378
 Alpha virt. eigenvalues --    0.51913   0.55122   0.55734   0.60271   0.61343
 Alpha virt. eigenvalues --    0.64290   0.85717   0.88025   0.91537   0.97569
 Alpha virt. eigenvalues --    0.99585   1.01778   1.02792   1.05072   1.12492
 Alpha virt. eigenvalues --    1.13748   1.20666   1.24357   1.26491   1.33516
 Alpha virt. eigenvalues --    1.36837   1.38185   1.47917   1.48469   1.53574
 Alpha virt. eigenvalues --    1.55996   1.62952   1.64387   1.69204   1.72248
 Alpha virt. eigenvalues --    1.91085   2.02827   2.05994   2.19952   2.38941
 Alpha virt. eigenvalues --    2.42942   2.54752   2.58555   2.60979   2.61784
 Alpha virt. eigenvalues --    2.76757   2.84438   2.84871   2.89561   2.92524
 Alpha virt. eigenvalues --    2.93603   2.96888   3.01265   3.07293   3.13253
 Alpha virt. eigenvalues --    3.26180   3.28095   3.31880   3.33592   3.36188
 Alpha virt. eigenvalues --    3.41310   3.42835   3.44138   3.47294   3.52189
 Alpha virt. eigenvalues --    3.57909   3.61622   3.68158   3.72982   3.75305
 Alpha virt. eigenvalues --    3.84312   3.85583   3.89210   3.91455   3.96277
 Alpha virt. eigenvalues --    3.97309   3.99781   4.08793   4.14184   4.16273
 Alpha virt. eigenvalues --    4.19836   4.20993   4.27453   4.35795   4.41995
 Alpha virt. eigenvalues --    4.52530   4.54515   4.58822   4.75196   4.78120
 Alpha virt. eigenvalues --    4.80397   4.90622   4.97015   4.97607   5.09584
 Alpha virt. eigenvalues --    5.14765   5.17726   5.22386   5.31314   5.32360
 Alpha virt. eigenvalues --    5.35260   5.49618   5.53105   5.60458   5.66838
 Alpha virt. eigenvalues --    5.74514   5.82982   5.93441   6.09548   6.35204
 Alpha virt. eigenvalues --    6.42812  23.56681  32.71403
          Condensed to atoms (all electrons):
               1          2          3          4          5          6
     1  N    6.456589   0.269043  -0.055067   0.390471   0.391516  -0.027065
     2  C    0.269043   4.814829   0.434458  -0.048224  -0.046679   0.410182
     3  H   -0.055067   0.434458   0.613994  -0.001495  -0.012739  -0.029643
     4  H    0.390471  -0.048224  -0.001495   0.565662  -0.043940  -0.012128
     5  H    0.391516  -0.046679  -0.012739  -0.043940   0.559949   0.007731
     6  H   -0.027065   0.410182  -0.029643  -0.012128   0.007731   0.561051
     7  H   -0.045217   0.406954  -0.051707   0.008888   0.000186  -0.025460
               7
     1  N   -0.045217
     2  C    0.406954
     3  H   -0.051707
     4  H    0.008888
     5  H    0.000186
     6  H   -0.025460
     7  H    0.587796
 Mulliken charges:
               1
     1  N   -0.380270
     2  C   -0.240564
     3  H    0.102199
     4  H    0.140767
     5  H    0.143977
     6  H    0.115331
     7  H    0.118560
 Sum of Mulliken charges =  -0.00000
 Mulliken charges with hydrogens summed into heavy atoms:
               1
     1  N   -0.095526
     2  C    0.095526
 Electronic spatial extent (au):  <R**2>=             95.5036
 Charge=             -0.0000 electrons
 Dipole moment (field-independent basis, Debye):
    X=              0.1983    Y=              0.0625    Z=              1.3024  Tot=              1.3189
 Quadrupole moment (field-independent basis, Debye-Ang):
   XX=            -13.8469   YY=            -12.5467   ZZ=            -15.5904
   XY=              0.1235   XZ=             -1.8889   YZ=              0.0139
 Traceless Quadrupole moment (field-independent basis, Debye-Ang):
   XX=              0.1477   YY=              1.4479   ZZ=             -1.5957
   XY=              0.1235   XZ=             -1.8889   YZ=              0.0139
 Octapole moment (field-independent basis, Debye-Ang**2):
  XXX=             -3.0690  YYY=              0.6522  ZZZ=              1.2411  XYY=             -2.0939
  XXY=              0.1546  XXZ=              2.1304  XZZ=              0.5404  YZZ=             -0.4664
  YYZ=              0.6733  XYZ=              0.1406
 Hexadecapole moment (field-independent basis, Debye-Ang**3):
 XXXX=            -76.4700 YYYY=            -23.9461 ZZZZ=            -25.2968 XXXY=              0.4429
 XXXZ=             -3.7022 YYYX=              0.8037 YYYZ=              0.0839 ZZZX=             -1.7553
 ZZZY=              0.0140 XXYY=            -14.4613 XXZZ=            -18.0167 YYZZ=             -8.2402
 XXYZ=              0.0503 YYXZ=             -1.5428 ZZXY=             -0.4469
 N-N= 4.204436351381D+01 E-N=-3.069602305266D+02  KE= 9.534180520013D+01
 1\1\GINC-NODE85\SP\RM062X\def2TZVPP\C1H5N1\YANZ\22-Sep-2023\0\\# M062X
 /def2TZVPP\\tmpdir/M2_ref_15.gjf\\0,1\N,0,1.57433794,-1.83414819,-0.38
 22803\C,0,0.34765889,-1.4163715,0.28738069\H,0,-0.48403329,-2.13238119
 ,0.17629062\H,0,1.56486511,-1.54988166,-1.35238812\H,0,1.70522894,-2.8
 3467573,-0.34611959\H,0,-0.01352871,-0.46003787,-0.07811369\H,0,0.5239
 3733,-1.35095828,1.36634202\\Version=ES64L-G16RevA.03\State=1-A\HF=-95
 .8435963\RMSD=8.043e-09\Dipole=-0.3738926,-0.2343482,-0.2730277\Quadru
 pole=-1.6871998,0.8424946,0.8447053,-0.8816946,-0.5632223,-0.2008659\P
 G=C01 [X(C1H5N1)]\\@


 THERE ARE PEOPLE SO ADDICTED TO EXAGERATING THEY
 CAN'T TELL THE TRUTH WITHOUT LYING. -- FORTUNE COOKIE
 Job cpu time:       0 days  0 hours  0 minutes 55.1 seconds.
 Elapsed time:       0 days  0 hours  0 minutes 10.3 seconds.
 File lengths (MBytes):  RWF=     10 Int=      0 D2E=      0 Chk=      2 Scr=      1
 Normal termination of Gaussian 16 at Fri Sep 22 16:47:53 2023.
