 Entering Gaussian System, Link 0=g16
 Initial command:
 /share/apps/gaussian/g16/l1.exe "/tmp/55604.mgr/Gau-82271.inp" -scrdir="/tmp/55604.mgr/"
 Entering Link 1 = /share/apps/gaussian/g16/l1.exe PID=     82272.
  
 Copyright (c) 1988,1990,1992,1993,1995,1998,2003,2009,2016,
            Gaussian, Inc.  All Rights Reserved.
  
 This is part of the Gaussian(R) 16 program.  It is based on
 the Gaussian(R) 09 system (copyright 2009, Gaussian, Inc.),
 the Gaussian(R) 03 system (copyright 2003, Gaussian, Inc.),
 the Gaussian(R) 98 system (copyright 1998, Gaussian, Inc.),
 the Gaussian(R) 94 system (copyright 1995, Gaussian, Inc.),
 the Gaussian 92(TM) system (copyright 1992, Gaussian, Inc.),
 the Gaussian 90(TM) system (copyright 1990, Gaussian, Inc.),
 the Gaussian 88(TM) system (copyright 1988, Gaussian, Inc.),
 the Gaussian 86(TM) system (copyright 1986, Carnegie Mellon
 University), and the Gaussian 82(TM) system (copyright 1983,
 Carnegie Mellon University). Gaussian is a federally registered
 trademark of Gaussian, Inc.
  
 This software contains proprietary and confidential information,
 including trade secrets, belonging to Gaussian, Inc.
  
 This software is provided under written license and may be
 used, copied, transmitted, or stored only in accord with that
 written license.
  
 The following legend is applicable only to US Government
 contracts under FAR:
  
                    RESTRICTED RIGHTS LEGEND
  
 Use, reproduction and disclosure by the US Government is
 subject to restrictions as set forth in subparagraphs (a)
 and (c) of the Commercial Computer Software - Restricted
 Rights clause in FAR 52.227-19.
  
 Gaussian, Inc.
 340 Quinnipiac St., Bldg. 40, Wallingford CT 06492
  
  
 ---------------------------------------------------------------
 Warning -- This program may not be used in any manner that
 competes with the business of Gaussian, Inc. or will provide
 assistance to any competitor of Gaussian, Inc.  The licensee
 of this program is prohibited from giving any competitor of
 Gaussian, Inc. access to this program.  By using this program,
 the user acknowledges that Gaussian, Inc. is engaged in the
 business of creating and licensing software in the field of
 computational chemistry and represents and warrants to the
 licensee that it is not a competitor of Gaussian, Inc. and that
 it will not use this program in any manner prohibited above.
 ---------------------------------------------------------------
  

 Cite this work as:
 Gaussian 16, Revision A.03,
 M. J. Frisch, G. W. Trucks, H. B. Schlegel, G. E. Scuseria, 
 M. A. Robb, J. R. Cheeseman, G. Scalmani, V. Barone, 
 G. A. Petersson, H. Nakatsuji, X. Li, M. Caricato, A. V. Marenich, 
 J. Bloino, B. G. Janesko, R. Gomperts, B. Mennucci, H. P. Hratchian, 
 J. V. Ortiz, A. F. Izmaylov, J. L. Sonnenberg, D. Williams-Young, 
 F. Ding, F. Lipparini, F. Egidi, J. Goings, B. Peng, A. Petrone, 
 T. Henderson, D. Ranasinghe, V. G. Zakrzewski, J. Gao, N. Rega, 
 G. Zheng, W. Liang, M. Hada, M. Ehara, K. Toyota, R. Fukuda, 
 J. Hasegawa, M. Ishida, T. Nakajima, Y. Honda, O. Kitao, H. Nakai, 
 T. Vreven, K. Throssell, J. A. Montgomery, Jr., J. E. Peralta, 
 F. Ogliaro, M. J. Bearpark, J. J. Heyd, E. N. Brothers, K. N. Kudin, 
 V. N. Staroverov, T. A. Keith, R. Kobayashi, J. Normand, 
 K. Raghavachari, A. P. Rendell, J. C. Burant, S. S. Iyengar, 
 J. Tomasi, M. Cossi, J. M. Millam, M. Klene, C. Adamo, R. Cammi, 
 J. W. Ochterski, R. L. Martin, K. Morokuma, O. Farkas, 
 J. B. Foresman, and D. J. Fox, Gaussian, Inc., Wallingford CT, 2016.
 
 ******************************************
 Gaussian 16:  ES64L-G16RevA.03 25-Dec-2016
                22-Sep-2023 
 ******************************************
 %nprocshared=6
 Will use up to    6 processors via shared memory.
 %mem=6GB
 -----------------
 # M062X/def2TZVPP
 -----------------
 1/38=1,172=1/1;
 2/12=2,17=6,18=5,40=1/2;
 3/5=44,7=202,11=2,25=1,30=1,74=-55/1,2,3;
 4//1;
 5/5=2,38=5/2;
 6/7=2,8=2,9=2,10=2,28=1/1;
 99/5=1,9=1/99;
 --------------------
 tmpdir/M2_ref_36.gjf
 --------------------
 Symbolic Z-matrix:
 Charge =  0 Multiplicity = 1
 O                     0.3197    0.44634  -1.41635 
 C                    -0.14513   1.67639  -1.94493 
 H                    -1.2164    1.63431  -2.14262 
 H                    -0.00258   0.14032  -0.65653 
 H                     0.04661   2.49397  -1.25008 
 H                     0.38933   1.8573   -2.87406 
 
                          Input orientation:                          
 ---------------------------------------------------------------------
 Center     Atomic      Atomic             Coordinates (Angstroms)
 Number     Number       Type             X           Y           Z
 ---------------------------------------------------------------------
      1          8           0        0.319702    0.446335   -1.416353
      2          6           0       -0.145127    1.676387   -1.944927
      3          1           0       -1.216399    1.634306   -2.142615
      4          1           0       -0.002582    0.140318   -0.656533
      5          1           0        0.046613    2.493966   -1.250080
      6          1           0        0.389333    1.857303   -2.874064
 ---------------------------------------------------------------------
                    Distance matrix (angstroms):
                    1          2          3          4          5
     1  O    0.000000
     2  C    1.417210   0.000000
     3  H    2.073243   1.090172   0.000000
     4  H    0.880250   2.009921   2.431829   0.000000
     5  H    2.072442   1.089960   1.769416   2.427834   0.000000
     6  H    2.029926   1.087049   1.778516   2.831797   1.777674
                    6
     6  H    0.000000
 Stoichiometry    CH4O
 Framework group  C1[X(CH4O)]
 Deg. of freedom    12
 Full point group                 C1      NOp   1
 Largest Abelian subgroup         C1      NOp   1
 Largest concise Abelian subgroup C1      NOp   1
                         Standard orientation:                         
 ---------------------------------------------------------------------
 Center     Atomic      Atomic             Coordinates (Angstroms)
 Number     Number       Type             X           Y           Z
 ---------------------------------------------------------------------
      1          8           0       -0.738767    0.106807    0.000278
      2          6           0        0.672843   -0.019049    0.000036
      3          1           0        1.015478   -0.553291    0.886412
      4          1           0       -1.247838   -0.611305   -0.001185
      5          1           0        1.013603   -0.559562   -0.882992
      6          1           0        1.091838    0.983995   -0.004678
 ---------------------------------------------------------------------
 Rotational constants (GHZ):         136.6528213          24.6479504          24.0121356
 Standard basis: def2TZVPP (5D, 7F)
 There are   132 symmetry adapted cartesian basis functions of A   symmetry.
 There are   118 symmetry adapted basis functions of A   symmetry.
   118 basis functions,   170 primitive gaussians,   132 cartesian basis functions
     9 alpha electrons        9 beta electrons
       nuclear repulsion energy        40.7450699208 Hartrees.
 NAtoms=    6 NActive=    6 NUniq=    6 SFac= 1.00D+00 NAtFMM=   60 NAOKFM=F Big=F
 Integral buffers will be    131072 words long.
 Raffenetti 2 integral format.
 Two-electron integral symmetry is turned on.
 One-electron integrals computed using PRISM.
   1 Symmetry operations used in ECPInt.
 ECPInt:  NShTT=    1081 NPrTT=    2684 LenC2=    1081 LenP2D=    2512.
 LDataN:  DoStor=T MaxTD1= 6 Len=  172
 NBasis=   118 RedAO= T EigKep=  5.83D-04  NBF=   118
 NBsUse=   118 1.00D-06 EigRej= -1.00D+00 NBFU=   118
 ExpMin= 9.52D-02 ExpMax= 2.70D+04 ExpMxC= 9.22D+02 IAcc=3 IRadAn=         5 AccDes= 0.00D+00
 Harris functional with IExCor= 1009 and IRadAn=       5 diagonalized for initial guess.
 HarFok:  IExCor= 1009 AccDes= 0.00D+00 IRadAn=         5 IDoV= 1 UseB2=F ITyADJ=14
 ICtDFT=  3500011 ScaDFX=  1.000000  1.000000  1.000000  1.000000
 FoFCou: FMM=F IPFlag=           0 FMFlag=      100000 FMFlg1=           0
         NFxFlg=           0 DoJE=T BraDBF=F KetDBF=T FulRan=T
         wScrn=  0.000000 ICntrl=       500 IOpCl=  0 I1Cent=   200000004 NGrid=           0
         NMat0=    1 NMatS0=      1 NMatT0=    0 NMatD0=    1 NMtDS0=    0 NMtDT0=    0
 Petite list used in FoFCou.
 Keep R1 ints in memory in canonical form, NReq=30406467.
 Requested convergence on RMS density matrix=1.00D-08 within 128 cycles.
 Requested convergence on MAX density matrix=1.00D-06.
 Requested convergence on             energy=1.00D-06.
 No special actions if energy rises.
 Integral accuracy reduced to 1.0D-05 until final iterations.
 Initial convergence to 1.0D-05 achieved.  Increase integral accuracy.
 SCF Done:  E(RM062X) =  -115.707671089     A.U. after   11 cycles
            NFock= 11  Conv=0.33D-08     -V/T= 2.0032

 **********************************************************************

            Population analysis using the SCF density.

 **********************************************************************

 Orbital symmetries:
       Occupied  (A) (A) (A) (A) (A) (A) (A) (A) (A)
       Virtual   (A) (A) (A) (A) (A) (A) (A) (A) (A) (A) (A) (A)
                 (A) (A) (A) (A) (A) (A) (A) (A) (A) (A) (A) (A)
                 (A) (A) (A) (A) (A) (A) (A) (A) (A) (A) (A) (A)
                 (A) (A) (A) (A) (A) (A) (A) (A) (A) (A) (A) (A)
                 (A) (A) (A) (A) (A) (A) (A) (A) (A) (A) (A) (A)
                 (A) (A) (A) (A) (A) (A) (A) (A) (A) (A) (A) (A)
                 (A) (A) (A) (A) (A) (A) (A) (A) (A) (A) (A) (A)
                 (A) (A) (A) (A) (A) (A) (A) (A) (A) (A) (A) (A)
                 (A) (A) (A) (A) (A) (A) (A) (A) (A) (A) (A) (A)
                 (A)
 The electronic state is 1-A.
 Alpha  occ. eigenvalues --  -19.60775 -10.57914  -1.14984  -0.79084  -0.59568
 Alpha  occ. eigenvalues --   -0.51581  -0.50581  -0.39924  -0.35354
 Alpha virt. eigenvalues --    0.06889   0.10692   0.15519   0.15766   0.17194
 Alpha virt. eigenvalues --    0.24538   0.25516   0.34631   0.39664   0.44212
 Alpha virt. eigenvalues --    0.47128   0.48252   0.52609   0.53349   0.54237
 Alpha virt. eigenvalues --    0.58857   0.67086   0.74192   0.78020   0.78641
 Alpha virt. eigenvalues --    0.90748   0.91525   0.98656   0.98940   1.04470
 Alpha virt. eigenvalues --    1.10074   1.11997   1.20654   1.29202   1.29484
 Alpha virt. eigenvalues --    1.33269   1.40941   1.46913   1.48397   1.54963
 Alpha virt. eigenvalues --    1.68442   1.78464   1.90252   1.91876   1.94272
 Alpha virt. eigenvalues --    2.02820   2.13845   2.13949   2.51512   2.52991
 Alpha virt. eigenvalues --    2.60244   2.61912   2.75047   2.76143   2.83837
 Alpha virt. eigenvalues --    2.86614   2.88639   2.92118   2.92723   3.00161
 Alpha virt. eigenvalues --    3.02855   3.11111   3.20821   3.28587   3.32341
 Alpha virt. eigenvalues --    3.40096   3.40473   3.44986   3.48457   3.54912
 Alpha virt. eigenvalues --    3.61736   3.63886   3.68449   3.74125   3.75088
 Alpha virt. eigenvalues --    3.80929   3.92415   3.94668   3.97371   4.02374
 Alpha virt. eigenvalues --    4.12903   4.14442   4.20841   4.25659   4.32901
 Alpha virt. eigenvalues --    4.41976   4.50042   4.57543   4.69270   4.80571
 Alpha virt. eigenvalues --    4.88616   4.95194   5.07032   5.09178   5.17713
 Alpha virt. eigenvalues --    5.22169   5.23372   5.28832   5.41661   5.49408
 Alpha virt. eigenvalues --    5.61372   5.68275   6.02121   6.08605   6.52498
 Alpha virt. eigenvalues --    6.59235   6.82815   6.90503   6.91064   7.06558
 Alpha virt. eigenvalues --    7.58351   7.64752  23.61153  44.17386
          Condensed to atoms (all electrons):
               1          2          3          4          5          6
     1  O    7.845273   0.267351  -0.047231   0.362922  -0.047218  -0.036159
     2  C    0.267351   4.713009   0.416155  -0.040167   0.416323   0.399994
     3  H   -0.047231   0.416155   0.600524  -0.006026  -0.044249  -0.033297
     4  H    0.362922  -0.040167  -0.006026   0.519327  -0.006165   0.008973
     5  H   -0.047218   0.416323  -0.044249  -0.006165   0.600299  -0.033125
     6  H   -0.036159   0.399994  -0.033297   0.008973  -0.033125   0.565406
 Mulliken charges:
               1
     1  O   -0.344937
     2  C   -0.172664
     3  H    0.114124
     4  H    0.161136
     5  H    0.114135
     6  H    0.128207
 Sum of Mulliken charges =  -0.00000
 Mulliken charges with hydrogens summed into heavy atoms:
               1
     1  O   -0.183801
     2  C    0.183801
 Electronic spatial extent (au):  <R**2>=             83.9604
 Charge=             -0.0000 electrons
 Dipole moment (field-independent basis, Debye):
    X=              0.6843    Y=             -1.3565    Z=             -0.0037  Tot=              1.5193
 Quadrupole moment (field-independent basis, Debye-Ang):
   XX=            -12.2017   YY=            -12.5284   ZZ=            -13.7001
   XY=              2.2174   XZ=              0.0036   YZ=              0.0004
 Traceless Quadrupole moment (field-independent basis, Debye-Ang):
   XX=              0.6084   YY=              0.2817   ZZ=             -0.8901
   XY=              2.2174   XZ=              0.0036   YZ=              0.0004
 Octapole moment (field-independent basis, Debye-Ang**2):
  XXX=             -5.8464  YYY=             -0.2162  ZZZ=              0.0032  XYY=             -1.4259
  XXY=             -2.3913  XXZ=             -0.0063  XZZ=             -0.4820  YZZ=             -0.6875
  YYZ=             -0.0084  XYZ=             -0.0050
 Hexadecapole moment (field-independent basis, Debye-Ang**3):
 XXXX=            -59.7784 YYYY=            -20.1514 ZZZZ=            -20.0165 XXXY=              4.5131
 XXXZ=              0.0068 YYYX=              2.7597 YYYZ=             -0.0002 ZZZX=              0.0077
 ZZZY=              0.0003 XXYY=            -12.6820 XXZZ=            -14.3666 YYZZ=             -6.7363
 XXYZ=             -0.0011 YYXZ=             -0.0059 ZZXY=             -0.1146
 N-N= 4.074506992080D+01 E-N=-3.530965146078D+02  KE= 1.153399945225D+02
 1\1\GINC-NODE85\SP\RM062X\def2TZVPP\C1H4O1\YANZ\22-Sep-2023\0\\# M062X
 /def2TZVPP\\tmpdir/M2_ref_36.gjf\\0,1\O,0,0.3197022,0.44633527,-1.4163
 5304\C,0,-0.14512688,1.67638702,-1.94492662\H,0,-1.21639868,1.63430638
 ,-2.14261544\H,0,-0.0025823,0.14031849,-0.65653324\H,0,0.0466127,2.493
 96636,-1.25007974\H,0,0.38933317,1.85730279,-2.8740643\\Version=ES64L-
 G16RevA.03\State=1-A\HF=-115.7076711\RMSD=3.349e-09\Dipole=-0.4154231,
 0.3266172,0.2793769\Quadrupole=-0.7950715,-0.3263402,1.1214117,0.62623
 19,-0.4157487,-1.2238966\PG=C01 [X(C1H4O1)]\\@


 ... IT IS NO ONE DREAME THAT
     CAN PLEASE THESE ALL ...

                -- BEN JONSON
 Job cpu time:       0 days  0 hours  0 minutes 39.0 seconds.
 Elapsed time:       0 days  0 hours  0 minutes  7.0 seconds.
 File lengths (MBytes):  RWF=     11 Int=      0 D2E=      0 Chk=      2 Scr=      1
 Normal termination of Gaussian 16 at Fri Sep 22 16:48:34 2023.
