 Entering Gaussian System, Link 0=g16
 Initial command:
 /share/apps/gaussian/g16/l1.exe "/tmp/55604.mgr/Gau-81020.inp" -scrdir="/tmp/55604.mgr/"
 Entering Link 1 = /share/apps/gaussian/g16/l1.exe PID=     81021.
  
 Copyright (c) 1988,1990,1992,1993,1995,1998,2003,2009,2016,
            Gaussian, Inc.  All Rights Reserved.
  
 This is part of the Gaussian(R) 16 program.  It is based on
 the Gaussian(R) 09 system (copyright 2009, Gaussian, Inc.),
 the Gaussian(R) 03 system (copyright 2003, Gaussian, Inc.),
 the Gaussian(R) 98 system (copyright 1998, Gaussian, Inc.),
 the Gaussian(R) 94 system (copyright 1995, Gaussian, Inc.),
 the Gaussian 92(TM) system (copyright 1992, Gaussian, Inc.),
 the Gaussian 90(TM) system (copyright 1990, Gaussian, Inc.),
 the Gaussian 88(TM) system (copyright 1988, Gaussian, Inc.),
 the Gaussian 86(TM) system (copyright 1986, Carnegie Mellon
 University), and the Gaussian 82(TM) system (copyright 1983,
 Carnegie Mellon University). Gaussian is a federally registered
 trademark of Gaussian, Inc.
  
 This software contains proprietary and confidential information,
 including trade secrets, belonging to Gaussian, Inc.
  
 This software is provided under written license and may be
 used, copied, transmitted, or stored only in accord with that
 written license.
  
 The following legend is applicable only to US Government
 contracts under FAR:
  
                    RESTRICTED RIGHTS LEGEND
  
 Use, reproduction and disclosure by the US Government is
 subject to restrictions as set forth in subparagraphs (a)
 and (c) of the Commercial Computer Software - Restricted
 Rights clause in FAR 52.227-19.
  
 Gaussian, Inc.
 340 Quinnipiac St., Bldg. 40, Wallingford CT 06492
  
  
 ---------------------------------------------------------------
 Warning -- This program may not be used in any manner that
 competes with the business of Gaussian, Inc. or will provide
 assistance to any competitor of Gaussian, Inc.  The licensee
 of this program is prohibited from giving any competitor of
 Gaussian, Inc. access to this program.  By using this program,
 the user acknowledges that Gaussian, Inc. is engaged in the
 business of creating and licensing software in the field of
 computational chemistry and represents and warrants to the
 licensee that it is not a competitor of Gaussian, Inc. and that
 it will not use this program in any manner prohibited above.
 ---------------------------------------------------------------
  

 Cite this work as:
 Gaussian 16, Revision A.03,
 M. J. Frisch, G. W. Trucks, H. B. Schlegel, G. E. Scuseria, 
 M. A. Robb, J. R. Cheeseman, G. Scalmani, V. Barone, 
 G. A. Petersson, H. Nakatsuji, X. Li, M. Caricato, A. V. Marenich, 
 J. Bloino, B. G. Janesko, R. Gomperts, B. Mennucci, H. P. Hratchian, 
 J. V. Ortiz, A. F. Izmaylov, J. L. Sonnenberg, D. Williams-Young, 
 F. Ding, F. Lipparini, F. Egidi, J. Goings, B. Peng, A. Petrone, 
 T. Henderson, D. Ranasinghe, V. G. Zakrzewski, J. Gao, N. Rega, 
 G. Zheng, W. Liang, M. Hada, M. Ehara, K. Toyota, R. Fukuda, 
 J. Hasegawa, M. Ishida, T. Nakajima, Y. Honda, O. Kitao, H. Nakai, 
 T. Vreven, K. Throssell, J. A. Montgomery, Jr., J. E. Peralta, 
 F. Ogliaro, M. J. Bearpark, J. J. Heyd, E. N. Brothers, K. N. Kudin, 
 V. N. Staroverov, T. A. Keith, R. Kobayashi, J. Normand, 
 K. Raghavachari, A. P. Rendell, J. C. Burant, S. S. Iyengar, 
 J. Tomasi, M. Cossi, J. M. Millam, M. Klene, C. Adamo, R. Cammi, 
 J. W. Ochterski, R. L. Martin, K. Morokuma, O. Farkas, 
 J. B. Foresman, and D. J. Fox, Gaussian, Inc., Wallingford CT, 2016.
 
 ******************************************
 Gaussian 16:  ES64L-G16RevA.03 25-Dec-2016
                22-Sep-2023 
 ******************************************
 %nprocshared=6
 Will use up to    6 processors via shared memory.
 %mem=6GB
 -----------------
 # M062X/def2TZVPP
 -----------------
 1/38=1,172=1/1;
 2/12=2,17=6,18=5,40=1/2;
 3/5=44,7=202,11=2,25=1,30=1,74=-55/1,2,3;
 4//1;
 5/5=2,38=5/2;
 6/7=2,8=2,9=2,10=2,28=1/1;
 99/5=1,9=1/99;
 -------------------
 tmpdir/M2_ref_8.gjf
 -------------------
 Symbolic Z-matrix:
 Charge =  0 Multiplicity = 1
 B                    -0.17753  -0.0258   -0.24407 
 O                     0.3197    0.44634  -1.41635 
 H                     0.20989  -1.05159   0.14797 
 H                    -0.97644   0.5815    0.28373 
 H                     0.00045   1.29115  -1.77938 
 
                          Input orientation:                          
 ---------------------------------------------------------------------
 Center     Atomic      Atomic             Coordinates (Angstroms)
 Number     Number       Type             X           Y           Z
 ---------------------------------------------------------------------
      1          5           0       -0.177531   -0.025800   -0.244072
      2          8           0        0.319702    0.446335   -1.416353
      3          1           0        0.209890   -1.051594    0.147969
      4          1           0       -0.976435    0.581495    0.283732
      5          1           0        0.000453    1.291146   -1.779382
 ---------------------------------------------------------------------
                    Distance matrix (angstroms):
                    1          2          3          4          5
     1  B    0.000000
     2  O    1.358085   0.000000
     3  H    1.164493   2.168630   0.000000
     4  H    1.133857   2.142085   2.023062   0.000000
     5  H    2.030567   0.973352   3.040884   2.390472   0.000000
 Stoichiometry    BH3O
 Framework group  C1[X(BH3O)]
 Deg. of freedom     9
 Full point group                 C1      NOp   1
 Largest Abelian subgroup         C1      NOp   1
 Largest concise Abelian subgroup C1      NOp   1
                         Standard orientation:                         
 ---------------------------------------------------------------------
 Center     Atomic      Atomic             Coordinates (Angstroms)
 Number     Number       Type             X           Y           Z
 ---------------------------------------------------------------------
      1          5           0        0.726981    0.041927   -0.005816
      2          8           0       -0.620048   -0.130907    0.000243
      3          1           0        1.406127   -0.903827    0.012998
      4          1           0        1.132583    1.100652    0.009047
      5          1           0       -1.213236    0.640792    0.005094
 ---------------------------------------------------------------------
 Rotational constants (GHZ):         188.2527379          30.1304694          25.9748766
 Standard basis: def2TZVPP (5D, 7F)
 There are   117 symmetry adapted cartesian basis functions of A   symmetry.
 There are   104 symmetry adapted basis functions of A   symmetry.
   104 basis functions,   153 primitive gaussians,   117 cartesian basis functions
     8 alpha electrons        8 beta electrons
       nuclear repulsion energy        30.4293716082 Hartrees.
 NAtoms=    5 NActive=    5 NUniq=    5 SFac= 1.00D+00 NAtFMM=   60 NAOKFM=F Big=F
 Integral buffers will be    131072 words long.
 Raffenetti 2 integral format.
 Two-electron integral symmetry is turned on.
 One-electron integrals computed using PRISM.
   1 Symmetry operations used in ECPInt.
 ECPInt:  NShTT=     820 NPrTT=    2133 LenC2=     821 LenP2D=    1995.
 LDataN:  DoStor=T MaxTD1= 6 Len=  172
 NBasis=   104 RedAO= T EigKep=  6.16D-04  NBF=   104
 NBsUse=   104 1.00D-06 EigRej= -1.00D+00 NBFU=   104
 ExpMin= 6.06D-02 ExpMax= 2.70D+04 ExpMxC= 9.22D+02 IAcc=3 IRadAn=         5 AccDes= 0.00D+00
 Harris functional with IExCor= 1009 and IRadAn=       5 diagonalized for initial guess.
 HarFok:  IExCor= 1009 AccDes= 0.00D+00 IRadAn=         5 IDoV= 1 UseB2=F ITyADJ=14
 ICtDFT=  3500011 ScaDFX=  1.000000  1.000000  1.000000  1.000000
 FoFCou: FMM=F IPFlag=           0 FMFlag=      100000 FMFlg1=           0
         NFxFlg=           0 DoJE=T BraDBF=F KetDBF=T FulRan=T
         wScrn=  0.000000 ICntrl=       500 IOpCl=  0 I1Cent=   200000004 NGrid=           0
         NMat0=    1 NMatS0=      1 NMatT0=    0 NMatD0=    1 NMtDS0=    0 NMtDT0=    0
 Petite list used in FoFCou.
 Keep R1 ints in memory in canonical form, NReq=20564853.
 Requested convergence on RMS density matrix=1.00D-08 within 128 cycles.
 Requested convergence on MAX density matrix=1.00D-06.
 Requested convergence on             energy=1.00D-06.
 No special actions if energy rises.
 Integral accuracy reduced to 1.0D-05 until final iterations.
 Initial convergence to 1.0D-05 achieved.  Increase integral accuracy.
 SCF Done:  E(RM062X) =  -101.905197676     A.U. after   12 cycles
            NFock= 12  Conv=0.74D-08     -V/T= 2.0041

 **********************************************************************

            Population analysis using the SCF density.

 **********************************************************************

 Orbital symmetries:
       Occupied  (A) (A) (A) (A) (A) (A) (A) (A)
       Virtual   (A) (A) (A) (A) (A) (A) (A) (A) (A) (A) (A) (A)
                 (A) (A) (A) (A) (A) (A) (A) (A) (A) (A) (A) (A)
                 (A) (A) (A) (A) (A) (A) (A) (A) (A) (A) (A) (A)
                 (A) (A) (A) (A) (A) (A) (A) (A) (A) (A) (A) (A)
                 (A) (A) (A) (A) (A) (A) (A) (A) (A) (A) (A) (A)
                 (A) (A) (A) (A) (A) (A) (A) (A) (A) (A) (A) (A)
                 (A) (A) (A) (A) (A) (A) (A) (A) (A) (A) (A) (A)
                 (A) (A) (A) (A) (A) (A) (A) (A) (A) (A) (A) (A)
 The electronic state is 1-A.
 Alpha  occ. eigenvalues --  -19.64808  -7.05495  -1.14930  -0.65905  -0.53979
 Alpha  occ. eigenvalues --   -0.47910  -0.44701  -0.37889
 Alpha virt. eigenvalues --    0.01883   0.05006   0.09548   0.11577   0.15158
 Alpha virt. eigenvalues --    0.18107   0.18675   0.24187   0.36080   0.40063
 Alpha virt. eigenvalues --    0.40704   0.45847   0.51011   0.51873   0.52390
 Alpha virt. eigenvalues --    0.56176   0.57301   0.66620   0.70633   0.73617
 Alpha virt. eigenvalues --    0.77346   0.78488   0.79901   0.85606   0.93853
 Alpha virt. eigenvalues --    0.96819   0.99536   1.08075   1.09100   1.26175
 Alpha virt. eigenvalues --    1.29153   1.33691   1.46719   1.50458   1.61061
 Alpha virt. eigenvalues --    1.65034   1.76797   1.84720   1.86999   1.90307
 Alpha virt. eigenvalues --    1.92986   2.03962   2.05039   2.10614   2.16408
 Alpha virt. eigenvalues --    2.19263   2.24348   2.28897   2.34221   2.39623
 Alpha virt. eigenvalues --    2.49221   2.70222   2.87355   2.90160   3.14093
 Alpha virt. eigenvalues --    3.19356   3.25362   3.29869   3.32896   3.34884
 Alpha virt. eigenvalues --    3.50456   3.53316   3.61028   3.62450   3.80872
 Alpha virt. eigenvalues --    3.83500   3.90637   3.94236   3.99725   4.05461
 Alpha virt. eigenvalues --    4.12787   4.16848   4.21746   4.23600   4.46979
 Alpha virt. eigenvalues --    4.54041   4.60690   4.71992   4.73708   4.86045
 Alpha virt. eigenvalues --    5.01777   5.35637   5.38902   5.58607   5.68032
 Alpha virt. eigenvalues --    5.79325   6.42882   6.54351   6.63370   6.67853
 Alpha virt. eigenvalues --    6.70788   6.88875   7.24100   7.37189  15.97912
 Alpha virt. eigenvalues --   43.71815
          Condensed to atoms (all electrons):
               1          2          3          4          5
     1  B    3.628860   0.469536   0.414424   0.443619  -0.050816
     2  O    0.469536   7.592181  -0.015519  -0.046542   0.340030
     3  H    0.414424  -0.015519   0.633452  -0.040442   0.007675
     4  H    0.443619  -0.046542  -0.040442   0.656036  -0.014107
     5  H   -0.050816   0.340030   0.007675  -0.014107   0.473758
 Mulliken charges:
               1
     1  B    0.094378
     2  O   -0.339685
     3  H    0.000410
     4  H    0.001437
     5  H    0.243460
 Sum of Mulliken charges =  -0.00000
 Mulliken charges with hydrogens summed into heavy atoms:
               1
     1  B    0.096226
     2  O   -0.096226
 Electronic spatial extent (au):  <R**2>=             75.0804
 Charge=             -0.0000 electrons
 Dipole moment (field-independent basis, Debye):
    X=             -0.6246    Y=              1.3943    Z=             -0.0195  Tot=              1.5279
 Quadrupole moment (field-independent basis, Debye-Ang):
   XX=            -12.3679   YY=            -13.3307   ZZ=            -12.6758
   XY=             -2.1326   XZ=             -0.0392   YZ=              0.0084
 Traceless Quadrupole moment (field-independent basis, Debye-Ang):
   XX=              0.4236   YY=             -0.5393   ZZ=              0.1157
   XY=             -2.1326   XZ=             -0.0392   YZ=              0.0084
 Octapole moment (field-independent basis, Debye-Ang**2):
  XXX=            -11.3257  YYY=              0.3227  ZZZ=             -0.0195  XYY=             -4.0830
  XXY=              2.3973  XXZ=              0.0114  XZZ=             -1.4704  YZZ=              0.0833
  YYZ=              0.0207  XYZ=             -0.0132
 Hexadecapole moment (field-independent basis, Debye-Ang**3):
 XXXX=            -65.0838 YYYY=            -28.0947 ZZZZ=            -12.2249 XXXY=             -3.9228
 XXXZ=             -0.0483 YYYX=             -2.2476 YYYZ=              0.0134 ZZZX=             -0.0471
 ZZZY=              0.0063 XXYY=            -15.5693 XXZZ=            -13.0497 YYZZ=             -7.0117
 XXYZ=              0.0059 YYXZ=              0.0083 ZZXY=             -0.3171
 N-N= 3.042937160823D+01 E-N=-2.999871800716D+02  KE= 1.014877536652D+02
 1\1\GINC-NODE85\SP\RM062X\def2TZVPP\B1H3O1\YANZ\22-Sep-2023\0\\# M062X
 /def2TZVPP\\tmpdir/M2_ref_8.gjf\\0,1\B,0,-0.17753149,-0.02579991,-0.24
 407203\O,0,0.3197022,0.44633527,-1.41635304\H,0,0.2098899,-1.05159398,
 0.14796895\H,0,-0.97643508,0.58149522,0.28373191\H,0,0.0004534,1.29114
 588,-1.77938213\\Version=ES64L-G16RevA.03\State=1-A\HF=-101.9051977\RM
 SD=7.419e-09\Dipole=-0.2701737,0.5268476,-0.1038611\Quadrupole=-0.6806
 085,0.9112703,-0.2306618,0.1434434,0.946093,-1.029285\PG=C01 [X(B1H3O1
 )]\\@


 IT IS A CAPITAL MISTAKE TO THEORIZE BEFORE ONE HAS
 DATA.  INSENSIBLY ONE BEGINS TO TWIST FACTS TO SUIT
 THEORIES RATHER THAN THEORIES TO SUIT FACTS.

                                         -- SHERLOCK HOLMES
 Job cpu time:       0 days  0 hours  0 minutes 36.2 seconds.
 Elapsed time:       0 days  0 hours  0 minutes  6.4 seconds.
 File lengths (MBytes):  RWF=     10 Int=      0 D2E=      0 Chk=      2 Scr=      1
 Normal termination of Gaussian 16 at Fri Sep 22 16:47:42 2023.
