 Entering Gaussian System, Link 0=g16
 Initial command:
 /share/apps/gaussian/g16/l1.exe "/tmp/55604.mgr/Gau-81517.inp" -scrdir="/tmp/55604.mgr/"
 Entering Link 1 = /share/apps/gaussian/g16/l1.exe PID=     81518.
  
 Copyright (c) 1988,1990,1992,1993,1995,1998,2003,2009,2016,
            Gaussian, Inc.  All Rights Reserved.
  
 This is part of the Gaussian(R) 16 program.  It is based on
 the Gaussian(R) 09 system (copyright 2009, Gaussian, Inc.),
 the Gaussian(R) 03 system (copyright 2003, Gaussian, Inc.),
 the Gaussian(R) 98 system (copyright 1998, Gaussian, Inc.),
 the Gaussian(R) 94 system (copyright 1995, Gaussian, Inc.),
 the Gaussian 92(TM) system (copyright 1992, Gaussian, Inc.),
 the Gaussian 90(TM) system (copyright 1990, Gaussian, Inc.),
 the Gaussian 88(TM) system (copyright 1988, Gaussian, Inc.),
 the Gaussian 86(TM) system (copyright 1986, Carnegie Mellon
 University), and the Gaussian 82(TM) system (copyright 1983,
 Carnegie Mellon University). Gaussian is a federally registered
 trademark of Gaussian, Inc.
  
 This software contains proprietary and confidential information,
 including trade secrets, belonging to Gaussian, Inc.
  
 This software is provided under written license and may be
 used, copied, transmitted, or stored only in accord with that
 written license.
  
 The following legend is applicable only to US Government
 contracts under FAR:
  
                    RESTRICTED RIGHTS LEGEND
  
 Use, reproduction and disclosure by the US Government is
 subject to restrictions as set forth in subparagraphs (a)
 and (c) of the Commercial Computer Software - Restricted
 Rights clause in FAR 52.227-19.
  
 Gaussian, Inc.
 340 Quinnipiac St., Bldg. 40, Wallingford CT 06492
  
  
 ---------------------------------------------------------------
 Warning -- This program may not be used in any manner that
 competes with the business of Gaussian, Inc. or will provide
 assistance to any competitor of Gaussian, Inc.  The licensee
 of this program is prohibited from giving any competitor of
 Gaussian, Inc. access to this program.  By using this program,
 the user acknowledges that Gaussian, Inc. is engaged in the
 business of creating and licensing software in the field of
 computational chemistry and represents and warrants to the
 licensee that it is not a competitor of Gaussian, Inc. and that
 it will not use this program in any manner prohibited above.
 ---------------------------------------------------------------
  

 Cite this work as:
 Gaussian 16, Revision A.03,
 M. J. Frisch, G. W. Trucks, H. B. Schlegel, G. E. Scuseria, 
 M. A. Robb, J. R. Cheeseman, G. Scalmani, V. Barone, 
 G. A. Petersson, H. Nakatsuji, X. Li, M. Caricato, A. V. Marenich, 
 J. Bloino, B. G. Janesko, R. Gomperts, B. Mennucci, H. P. Hratchian, 
 J. V. Ortiz, A. F. Izmaylov, J. L. Sonnenberg, D. Williams-Young, 
 F. Ding, F. Lipparini, F. Egidi, J. Goings, B. Peng, A. Petrone, 
 T. Henderson, D. Ranasinghe, V. G. Zakrzewski, J. Gao, N. Rega, 
 G. Zheng, W. Liang, M. Hada, M. Ehara, K. Toyota, R. Fukuda, 
 J. Hasegawa, M. Ishida, T. Nakajima, Y. Honda, O. Kitao, H. Nakai, 
 T. Vreven, K. Throssell, J. A. Montgomery, Jr., J. E. Peralta, 
 F. Ogliaro, M. J. Bearpark, J. J. Heyd, E. N. Brothers, K. N. Kudin, 
 V. N. Staroverov, T. A. Keith, R. Kobayashi, J. Normand, 
 K. Raghavachari, A. P. Rendell, J. C. Burant, S. S. Iyengar, 
 J. Tomasi, M. Cossi, J. M. Millam, M. Klene, C. Adamo, R. Cammi, 
 J. W. Ochterski, R. L. Martin, K. Morokuma, O. Farkas, 
 J. B. Foresman, and D. J. Fox, Gaussian, Inc., Wallingford CT, 2016.
 
 ******************************************
 Gaussian 16:  ES64L-G16RevA.03 25-Dec-2016
                22-Sep-2023 
 ******************************************
 %nprocshared=6
 Will use up to    6 processors via shared memory.
 %mem=6GB
 -----------------
 # M062X/def2TZVPP
 -----------------
 1/38=1,172=1/1;
 2/12=2,17=6,18=5,40=1/2;
 3/5=44,7=202,11=2,25=1,30=1,74=-55/1,2,3;
 4//1;
 5/5=2,38=5/2;
 6/7=2,8=2,9=2,10=2,28=1/1;
 99/5=1,9=1/99;
 --------------------
 tmpdir/M2_ref_11.gjf
 --------------------
 Symbolic Z-matrix:
 Charge =  0 Multiplicity = 1
 O                    -1.13872   0.70486   0.39095 
 B                    -0.17753  -0.0258   -0.24407 
 O                     0.3197    0.44634  -1.41635 
 H                    -1.52368   0.40592   1.22996 
 H                     0.20989  -1.05159   0.14797 
 H                     0.00045   1.29115  -1.77938 
 
                          Input orientation:                          
 ---------------------------------------------------------------------
 Center     Atomic      Atomic             Coordinates (Angstroms)
 Number     Number       Type             X           Y           Z
 ---------------------------------------------------------------------
      1          8           0       -1.138724    0.704861    0.390950
      2          5           0       -0.177531   -0.025800   -0.244072
      3          8           0        0.319702    0.446335   -1.416353
      4          1           0       -1.523678    0.405920    1.229958
      5          1           0        0.209890   -1.051594    0.147969
      6          1           0        0.000453    1.291146   -1.779382
 ---------------------------------------------------------------------
                    Distance matrix (angstroms):
                    1          2          3          4          5
     1  O    0.000000
     2  B    1.364188   0.000000
     3  O    2.336704   1.358085   0.000000
     4  H    0.970305   2.042366   3.225314   0.000000
     5  H    2.227764   1.164493   2.168630   2.510041   0.000000
     6  H    2.520277   2.030567   0.973352   3.487511   3.040884
                    6
     6  H    0.000000
 Stoichiometry    BH3O2
 Framework group  C1[X(BH3O2)]
 Deg. of freedom    12
 Full point group                 C1      NOp   1
 Largest Abelian subgroup         C1      NOp   1
 Largest concise Abelian subgroup C1      NOp   1
                         Standard orientation:                         
 ---------------------------------------------------------------------
 Center     Atomic      Atomic             Coordinates (Angstroms)
 Number     Number       Type             X           Y           Z
 ---------------------------------------------------------------------
      1          8           0       -1.114620   -0.294950    0.001876
      2          5           0       -0.004659    0.498084   -0.007697
      3          8           0        1.214035   -0.101170    0.001011
      4          1           0       -2.005658    0.089138   -0.002544
      5          1           0       -0.049209    1.661483    0.016047
      6          1           0        1.282848   -1.072086    0.001885
 ---------------------------------------------------------------------
 Rotational constants (GHZ):          61.8495904          10.2689544           8.8070308
 Standard basis: def2TZVPP (5D, 7F)
 There are   153 symmetry adapted cartesian basis functions of A   symmetry.
 There are   135 symmetry adapted basis functions of A   symmetry.
   135 basis functions,   204 primitive gaussians,   153 cartesian basis functions
    12 alpha electrons       12 beta electrons
       nuclear repulsion energy        66.5601340271 Hartrees.
 NAtoms=    6 NActive=    6 NUniq=    6 SFac= 1.00D+00 NAtFMM=   60 NAOKFM=F Big=F
 Integral buffers will be    131072 words long.
 Raffenetti 2 integral format.
 Two-electron integral symmetry is turned on.
 One-electron integrals computed using PRISM.
   1 Symmetry operations used in ECPInt.
 ECPInt:  NShTT=    1326 NPrTT=    3645 LenC2=    1324 LenP2D=    3270.
 LDataN:  DoStor=T MaxTD1= 6 Len=  172
 NBasis=   135 RedAO= T EigKep=  5.29D-04  NBF=   135
 NBsUse=   135 1.00D-06 EigRej= -1.00D+00 NBFU=   135
 ExpMin= 6.06D-02 ExpMax= 2.70D+04 ExpMxC= 9.22D+02 IAcc=3 IRadAn=         5 AccDes= 0.00D+00
 Harris functional with IExCor= 1009 and IRadAn=       5 diagonalized for initial guess.
 HarFok:  IExCor= 1009 AccDes= 0.00D+00 IRadAn=         5 IDoV= 1 UseB2=F ITyADJ=14
 ICtDFT=  3500011 ScaDFX=  1.000000  1.000000  1.000000  1.000000
 FoFCou: FMM=F IPFlag=           0 FMFlag=      100000 FMFlg1=           0
         NFxFlg=           0 DoJE=T BraDBF=F KetDBF=T FulRan=T
         wScrn=  0.000000 ICntrl=       500 IOpCl=  0 I1Cent=   200000004 NGrid=           0
         NMat0=    1 NMatS0=      1 NMatT0=    0 NMatD0=    1 NMtDS0=    0 NMtDT0=    0
 Petite list used in FoFCou.
 Keep R1 ints in memory in canonical form, NReq=48021256.
 Requested convergence on RMS density matrix=1.00D-08 within 128 cycles.
 Requested convergence on MAX density matrix=1.00D-06.
 Requested convergence on             energy=1.00D-06.
 No special actions if energy rises.
 Integral accuracy reduced to 1.0D-05 until final iterations.
 Initial convergence to 1.0D-05 achieved.  Increase integral accuracy.
 SCF Done:  E(RM062X) =  -177.215444109     A.U. after   12 cycles
            NFock= 12  Conv=0.57D-08     -V/T= 2.0045

 **********************************************************************

            Population analysis using the SCF density.

 **********************************************************************

 Orbital symmetries:
       Occupied  (A) (A) (A) (A) (A) (A) (A) (A) (A) (A) (A) (A)
       Virtual   (A) (A) (A) (A) (A) (A) (A) (A) (A) (A) (A) (A)
                 (A) (A) (A) (A) (A) (A) (A) (A) (A) (A) (A) (A)
                 (A) (A) (A) (A) (A) (A) (A) (A) (A) (A) (A) (A)
                 (A) (A) (A) (A) (A) (A) (A) (A) (A) (A) (A) (A)
                 (A) (A) (A) (A) (A) (A) (A) (A) (A) (A) (A) (A)
                 (A) (A) (A) (A) (A) (A) (A) (A) (A) (A) (A) (A)
                 (A) (A) (A) (A) (A) (A) (A) (A) (A) (A) (A) (A)
                 (A) (A) (A) (A) (A) (A) (A) (A) (A) (A) (A) (A)
                 (A) (A) (A) (A) (A) (A) (A) (A) (A) (A) (A) (A)
                 (A) (A) (A) (A) (A) (A) (A) (A) (A) (A) (A) (A)
                 (A) (A) (A)
 The electronic state is 1-A.
 Alpha  occ. eigenvalues --  -19.63845 -19.63076  -7.07947  -1.15909  -1.12372
 Alpha  occ. eigenvalues --   -0.66517  -0.62586  -0.52217  -0.47180  -0.44561
 Alpha  occ. eigenvalues --   -0.40762  -0.40435
 Alpha virt. eigenvalues --    0.05187   0.06487   0.07160   0.11152   0.14688
 Alpha virt. eigenvalues --    0.15917   0.17617   0.23546   0.34799   0.37980
 Alpha virt. eigenvalues --    0.40526   0.44838   0.45727   0.49520   0.50628
 Alpha virt. eigenvalues --    0.51555   0.54411   0.55729   0.56509   0.58551
 Alpha virt. eigenvalues --    0.60002   0.70609   0.72388   0.75316   0.78964
 Alpha virt. eigenvalues --    0.79294   0.84935   0.86390   0.90317   0.94777
 Alpha virt. eigenvalues --    1.01737   1.02647   1.07613   1.17567   1.20561
 Alpha virt. eigenvalues --    1.27966   1.31384   1.37379   1.49964   1.58495
 Alpha virt. eigenvalues --    1.64902   1.66559   1.69678   1.74609   1.78607
 Alpha virt. eigenvalues --    1.85104   1.89954   1.95085   2.02502   2.03736
 Alpha virt. eigenvalues --    2.05517   2.15030   2.19398   2.24961   2.27857
 Alpha virt. eigenvalues --    2.32359   2.35756   2.37892   2.43310   2.49937
 Alpha virt. eigenvalues --    2.53834   2.77778   2.83749   2.89551   2.91128
 Alpha virt. eigenvalues --    2.99499   3.09469   3.24480   3.26592   3.30054
 Alpha virt. eigenvalues --    3.34597   3.35263   3.37757   3.41554   3.48806
 Alpha virt. eigenvalues --    3.52211   3.62761   3.63086   3.68736   3.81845
 Alpha virt. eigenvalues --    3.85653   3.91790   3.98133   4.03032   4.11227
 Alpha virt. eigenvalues --    4.14852   4.19066   4.22298   4.30484   4.43988
 Alpha virt. eigenvalues --    4.52586   4.69360   4.76229   4.85694   4.91100
 Alpha virt. eigenvalues --    5.13635   5.31197   5.42233   5.45378   5.60523
 Alpha virt. eigenvalues --    5.68463   5.77129   5.78611   5.80079   6.39029
 Alpha virt. eigenvalues --    6.49456   6.54628   6.55821   6.57926   6.61296
 Alpha virt. eigenvalues --    6.68079   6.68207   6.76268   6.82382   6.85681
 Alpha virt. eigenvalues --    6.94466   7.23101   7.24205   7.42832   7.47262
 Alpha virt. eigenvalues --   16.18587  43.70971  43.85390
          Condensed to atoms (all electrons):
               1          2          3          4          5          6
     1  O    7.656214   0.465882  -0.045027   0.344860  -0.048166  -0.005430
     2  B    0.465882   3.405508   0.497548  -0.038060   0.428118  -0.038737
     3  O   -0.045027   0.497548   7.611911   0.003645  -0.025473   0.332627
     4  H    0.344860  -0.038060   0.003645   0.451576  -0.006704  -0.000009
     5  H   -0.048166   0.428118  -0.025473  -0.006704   0.665725   0.007244
     6  H   -0.005430  -0.038737   0.332627  -0.000009   0.007244   0.464429
 Mulliken charges:
               1
     1  O   -0.368334
     2  B    0.279741
     3  O   -0.375231
     4  H    0.244693
     5  H   -0.020745
     6  H    0.239876
 Sum of Mulliken charges =  -0.00000
 Mulliken charges with hydrogens summed into heavy atoms:
               1
     1  O   -0.123641
     2  B    0.258996
     3  O   -0.135356
 Electronic spatial extent (au):  <R**2>=            156.7178
 Charge=             -0.0000 electrons
 Dipole moment (field-independent basis, Debye):
    X=             -1.5133    Y=             -0.3855    Z=             -0.0376  Tot=              1.5621
 Quadrupole moment (field-independent basis, Debye-Ang):
   XX=            -15.5336   YY=            -16.9949   ZZ=            -18.1346
   XY=             -3.7623   XZ=              0.0186   YZ=             -0.0242
 Traceless Quadrupole moment (field-independent basis, Debye-Ang):
   XX=              1.3541   YY=             -0.1072   ZZ=             -1.2469
   XY=             -3.7623   XZ=              0.0186   YZ=             -0.0242
 Octapole moment (field-independent basis, Debye-Ang**2):
  XXX=            -15.1765  YYY=             -7.9593  ZZZ=             -0.0093  XYY=              3.9285
  XXY=             -2.6681  XXZ=             -0.0031  XZZ=             -0.1418  YZZ=             -1.0095
  YYZ=              0.0225  XYZ=             -0.0054
 Hexadecapole moment (field-independent basis, Debye-Ang**3):
 XXXX=            -98.7520 YYYY=            -47.0628 ZZZZ=            -16.6425 XXXY=             -8.9764
 XXXZ=              0.0686 YYYX=             -5.0550 YYYZ=              0.0188 ZZZX=              0.0094
 ZZZY=             -0.0376 XXYY=            -25.3922 XXZZ=            -24.8489 YYZZ=            -11.0105
 XXYZ=             -0.0256 YYXZ=              0.0083 ZZXY=             -0.5200
 N-N= 6.656013402715D+01 E-N=-5.507233697014D+02  KE= 1.764217758481D+02
 1\1\GINC-NODE85\SP\RM062X\def2TZVPP\B1H3O2\YANZ\22-Sep-2023\0\\# M062X
 /def2TZVPP\\tmpdir/M2_ref_11.gjf\\0,1\O,0,-1.13872374,0.70486068,0.390
 9496\B,0,-0.17753149,-0.02579991,-0.24407203\O,0,0.3197022,0.44633527,
 -1.41635304\H,0,-1.52367808,0.40592018,1.2299583\H,0,0.2098899,-1.0515
 9398,0.14796895\H,0,0.0004534,1.29114588,-1.77938213\\Version=ES64L-G1
 6RevA.03\State=1-A\HF=-177.2154441\RMSD=5.717e-09\Dipole=-0.4000043,0.
 1625501,0.4373459\Quadrupole=-1.361158,-0.4809691,1.8421271,1.1638763,
 -0.5088737,-2.1004765\PG=C01 [X(B1H3O2)]\\@


 I HAVE NOT FAILED, I HAVE ONLY DISCOVERED 10,000
 WAYS THAT DIDN'T WORK.  -- THOMAS A. EDISON
 Job cpu time:       0 days  0 hours  0 minutes 56.7 seconds.
 Elapsed time:       0 days  0 hours  0 minutes 10.5 seconds.
 File lengths (MBytes):  RWF=     10 Int=      0 D2E=      0 Chk=      2 Scr=      1
 Normal termination of Gaussian 16 at Fri Sep 22 16:48:08 2023.
