 Entering Gaussian System, Link 0=g16
 Initial command:
 /share/apps/gaussian/g16/l1.exe "/tmp/55604.mgr/Gau-80581.inp" -scrdir="/tmp/55604.mgr/"
 Entering Link 1 = /share/apps/gaussian/g16/l1.exe PID=     80585.
  
 Copyright (c) 1988,1990,1992,1993,1995,1998,2003,2009,2016,
            Gaussian, Inc.  All Rights Reserved.
  
 This is part of the Gaussian(R) 16 program.  It is based on
 the Gaussian(R) 09 system (copyright 2009, Gaussian, Inc.),
 the Gaussian(R) 03 system (copyright 2003, Gaussian, Inc.),
 the Gaussian(R) 98 system (copyright 1998, Gaussian, Inc.),
 the Gaussian(R) 94 system (copyright 1995, Gaussian, Inc.),
 the Gaussian 92(TM) system (copyright 1992, Gaussian, Inc.),
 the Gaussian 90(TM) system (copyright 1990, Gaussian, Inc.),
 the Gaussian 88(TM) system (copyright 1988, Gaussian, Inc.),
 the Gaussian 86(TM) system (copyright 1986, Carnegie Mellon
 University), and the Gaussian 82(TM) system (copyright 1983,
 Carnegie Mellon University). Gaussian is a federally registered
 trademark of Gaussian, Inc.
  
 This software contains proprietary and confidential information,
 including trade secrets, belonging to Gaussian, Inc.
  
 This software is provided under written license and may be
 used, copied, transmitted, or stored only in accord with that
 written license.
  
 The following legend is applicable only to US Government
 contracts under FAR:
  
                    RESTRICTED RIGHTS LEGEND
  
 Use, reproduction and disclosure by the US Government is
 subject to restrictions as set forth in subparagraphs (a)
 and (c) of the Commercial Computer Software - Restricted
 Rights clause in FAR 52.227-19.
  
 Gaussian, Inc.
 340 Quinnipiac St., Bldg. 40, Wallingford CT 06492
  
  
 ---------------------------------------------------------------
 Warning -- This program may not be used in any manner that
 competes with the business of Gaussian, Inc. or will provide
 assistance to any competitor of Gaussian, Inc.  The licensee
 of this program is prohibited from giving any competitor of
 Gaussian, Inc. access to this program.  By using this program,
 the user acknowledges that Gaussian, Inc. is engaged in the
 business of creating and licensing software in the field of
 computational chemistry and represents and warrants to the
 licensee that it is not a competitor of Gaussian, Inc. and that
 it will not use this program in any manner prohibited above.
 ---------------------------------------------------------------
  

 Cite this work as:
 Gaussian 16, Revision A.03,
 M. J. Frisch, G. W. Trucks, H. B. Schlegel, G. E. Scuseria, 
 M. A. Robb, J. R. Cheeseman, G. Scalmani, V. Barone, 
 G. A. Petersson, H. Nakatsuji, X. Li, M. Caricato, A. V. Marenich, 
 J. Bloino, B. G. Janesko, R. Gomperts, B. Mennucci, H. P. Hratchian, 
 J. V. Ortiz, A. F. Izmaylov, J. L. Sonnenberg, D. Williams-Young, 
 F. Ding, F. Lipparini, F. Egidi, J. Goings, B. Peng, A. Petrone, 
 T. Henderson, D. Ranasinghe, V. G. Zakrzewski, J. Gao, N. Rega, 
 G. Zheng, W. Liang, M. Hada, M. Ehara, K. Toyota, R. Fukuda, 
 J. Hasegawa, M. Ishida, T. Nakajima, Y. Honda, O. Kitao, H. Nakai, 
 T. Vreven, K. Throssell, J. A. Montgomery, Jr., J. E. Peralta, 
 F. Ogliaro, M. J. Bearpark, J. J. Heyd, E. N. Brothers, K. N. Kudin, 
 V. N. Staroverov, T. A. Keith, R. Kobayashi, J. Normand, 
 K. Raghavachari, A. P. Rendell, J. C. Burant, S. S. Iyengar, 
 J. Tomasi, M. Cossi, J. M. Millam, M. Klene, C. Adamo, R. Cammi, 
 J. W. Ochterski, R. L. Martin, K. Morokuma, O. Farkas, 
 J. B. Foresman, and D. J. Fox, Gaussian, Inc., Wallingford CT, 2016.
 
 ******************************************
 Gaussian 16:  ES64L-G16RevA.03 25-Dec-2016
                22-Sep-2023 
 ******************************************
 %nprocshared=6
 Will use up to    6 processors via shared memory.
 %mem=6GB
 -----------------
 # M062X/def2TZVPP
 -----------------
 1/38=1,172=1/1;
 2/12=2,17=6,18=5,40=1/2;
 3/5=44,7=202,11=2,25=1,30=1,74=-55/1,2,3;
 4//1;
 5/5=2,38=5/2;
 6/7=2,8=2,9=2,10=2,28=1/1;
 99/5=1,9=1/99;
 -------------------
 tmpdir/M2_ref_3.gjf
 -------------------
 Symbolic Z-matrix:
 Charge =  0 Multiplicity = 1
 H                     1.56487  -1.54988  -1.35239 
 N                     1.57434  -1.83415  -0.38228 
 H                     1.70523  -2.83468  -0.34612 
 H                     0.71543  -1.54163   0.08661 
 
                          Input orientation:                          
 ---------------------------------------------------------------------
 Center     Atomic      Atomic             Coordinates (Angstroms)
 Number     Number       Type             X           Y           Z
 ---------------------------------------------------------------------
      1          1           0        1.564865   -1.549882   -1.352388
      2          7           0        1.574338   -1.834148   -0.382280
      3          1           0        1.705229   -2.834676   -0.346120
      4          1           0        0.715431   -1.541626    0.086609
 ---------------------------------------------------------------------
                    Distance matrix (angstroms):
                    1          2          3          4
     1  H    0.000000
     2  N    1.010943   0.000000
     3  H    1.637979   1.009701   0.000000
     4  H    1.671023   1.021346   1.684913   0.000000
 Stoichiometry    H3N
 Framework group  C1[X(H3N)]
 Deg. of freedom     6
 Full point group                 C1      NOp   1
 Largest Abelian subgroup         C1      NOp   1
 Largest concise Abelian subgroup C1      NOp   1
                         Standard orientation:                         
 ---------------------------------------------------------------------
 Center     Atomic      Atomic             Coordinates (Angstroms)
 Number     Number       Type             X           Y           Z
 ---------------------------------------------------------------------
      1          1           0       -0.365136    0.884079    0.221236
      2          7           0        0.002333   -0.002359   -0.096883
      3          1           0       -0.612309   -0.735133    0.226774
      4          1           0        0.961117   -0.132430    0.230168
 ---------------------------------------------------------------------
 Rotational constants (GHZ):         314.0036790         296.8227541         180.9215439
 Standard basis: def2TZVPP (5D, 7F)
 There are    81 symmetry adapted cartesian basis functions of A   symmetry.
 There are    73 symmetry adapted basis functions of A   symmetry.
    73 basis functions,   102 primitive gaussians,    81 cartesian basis functions
     5 alpha electrons        5 beta electrons
       nuclear repulsion energy        11.9134298066 Hartrees.
 NAtoms=    4 NActive=    4 NUniq=    4 SFac= 1.00D+00 NAtFMM=   60 NAOKFM=F Big=F
 Integral buffers will be    131072 words long.
 Raffenetti 2 integral format.
 Two-electron integral symmetry is turned on.
 One-electron integrals computed using PRISM.
   1 Symmetry operations used in ECPInt.
 ECPInt:  NShTT=     435 NPrTT=    1021 LenC2=     436 LenP2D=    1000.
 LDataN:  DoStor=T MaxTD1= 6 Len=  172
 NBasis=    73 RedAO= T EigKep=  9.09D-04  NBF=    73
 NBsUse=    73 1.00D-06 EigRej= -1.00D+00 NBFU=    73
 ExpMin= 1.03D-01 ExpMax= 1.97D+04 ExpMxC= 6.73D+02 IAcc=3 IRadAn=         5 AccDes= 0.00D+00
 Harris functional with IExCor= 1009 and IRadAn=       5 diagonalized for initial guess.
 HarFok:  IExCor= 1009 AccDes= 0.00D+00 IRadAn=         5 IDoV= 1 UseB2=F ITyADJ=14
 ICtDFT=  3500011 ScaDFX=  1.000000  1.000000  1.000000  1.000000
 FoFCou: FMM=F IPFlag=           0 FMFlag=      100000 FMFlg1=           0
         NFxFlg=           0 DoJE=T BraDBF=F KetDBF=T FulRan=T
         wScrn=  0.000000 ICntrl=       500 IOpCl=  0 I1Cent=   200000004 NGrid=           0
         NMat0=    1 NMatS0=      1 NMatT0=    0 NMatD0=    1 NMtDS0=    0 NMtDT0=    0
 Petite list used in FoFCou.
 Keep R1 ints in memory in canonical form, NReq=9081235.
 Requested convergence on RMS density matrix=1.00D-08 within 128 cycles.
 Requested convergence on MAX density matrix=1.00D-06.
 Requested convergence on             energy=1.00D-06.
 No special actions if energy rises.
 Integral accuracy reduced to 1.0D-05 until final iterations.
 Initial convergence to 1.0D-05 achieved.  Increase integral accuracy.
 SCF Done:  E(RM062X) =  -56.5511173689     A.U. after   12 cycles
            NFock= 12  Conv=0.71D-09     -V/T= 2.0052

 **********************************************************************

            Population analysis using the SCF density.

 **********************************************************************

 Orbital symmetries:
       Occupied  (A) (A) (A) (A) (A)
       Virtual   (A) (A) (A) (A) (A) (A) (A) (A) (A) (A) (A) (A)
                 (A) (A) (A) (A) (A) (A) (A) (A) (A) (A) (A) (A)
                 (A) (A) (A) (A) (A) (A) (A) (A) (A) (A) (A) (A)
                 (A) (A) (A) (A) (A) (A) (A) (A) (A) (A) (A) (A)
                 (A) (A) (A) (A) (A) (A) (A) (A) (A) (A) (A) (A)
                 (A) (A) (A) (A) (A) (A) (A) (A)
 The electronic state is 1-A.
 Alpha  occ. eigenvalues --  -14.71903  -0.94745  -0.53655  -0.53043  -0.32901
 Alpha virt. eigenvalues --    0.05986   0.13939   0.14161   0.34198   0.34774
 Alpha virt. eigenvalues --    0.39173   0.46684   0.50069   0.53126   0.53356
 Alpha virt. eigenvalues --    0.61844   0.63037   0.95813   0.96319   1.03760
 Alpha virt. eigenvalues --    1.04900   1.22996   1.23455   1.24297   1.48133
 Alpha virt. eigenvalues --    1.48664   1.54354   1.59115   1.59510   2.04332
 Alpha virt. eigenvalues --    2.16469   2.17592   2.25231   2.64826   2.86772
 Alpha virt. eigenvalues --    2.88046   3.10115   3.17000   3.18407   3.22065
 Alpha virt. eigenvalues --    3.27341   3.29201   3.36855   3.52881   3.53188
 Alpha virt. eigenvalues --    3.63471   3.65244   3.70240   3.78053   3.88248
 Alpha virt. eigenvalues --    3.88808   4.06799   4.07233   4.17869   4.32587
 Alpha virt. eigenvalues --    4.34013   4.35401   4.56303   4.72016   4.72356
 Alpha virt. eigenvalues --    5.16163   5.19425   5.22686   5.50949   5.65238
 Alpha virt. eigenvalues --    5.66042   5.81766   5.85648   6.05648   6.33627
 Alpha virt. eigenvalues --    6.37180   6.45145  32.62905
          Condensed to atoms (all electrons):
               1          2          3          4
     1  H    0.530174   0.392480  -0.040960  -0.039238
     2  N    0.392480   6.304149   0.394541   0.394683
     3  H   -0.040960   0.394541   0.525110  -0.038598
     4  H   -0.039238   0.394683  -0.038598   0.514753
 Mulliken charges:
               1
     1  H    0.157544
     2  N   -0.485853
     3  H    0.159908
     4  H    0.168401
 Sum of Mulliken charges =   0.00000
 Mulliken charges with hydrogens summed into heavy atoms:
               1
     2  N    0.000000
 Electronic spatial extent (au):  <R**2>=             26.7172
 Charge=              0.0000 electrons
 Dipole moment (field-independent basis, Debye):
    X=             -0.0221    Y=              0.0209    Z=              1.4300  Tot=              1.4303
 Quadrupole moment (field-independent basis, Debye-Ang):
   XX=             -6.0058   YY=             -6.1999   ZZ=             -9.3650
   XY=              0.0044   XZ=              0.0006   YZ=             -0.0066
 Traceless Quadrupole moment (field-independent basis, Debye-Ang):
   XX=              1.1844   YY=              0.9903   ZZ=             -2.1747
   XY=              0.0044   XZ=              0.0006   YZ=             -0.0066
 Octapole moment (field-independent basis, Debye-Ang**2):
  XXX=              0.9161  YYY=              0.4580  ZZZ=              1.2850  XYY=             -0.9366
  XXY=             -0.4309  XXZ=              0.8109  XZZ=             -0.0152  YZZ=              0.0060
  YYZ=              0.7638  XYZ=              0.0024
 Hexadecapole moment (field-independent basis, Debye-Ang**3):
 XXXX=             -9.9830 YYYY=            -10.0026 ZZZZ=            -11.3555 XXXY=              0.0277
 XXXZ=              0.2942 YYYX=             -0.0150 YYYZ=              0.1276 ZZZX=             -0.0044
 ZZZY=             -0.0079 XXYY=             -3.3230 XXZZ=             -3.7609 YYZZ=             -3.7359
 XXYZ=             -0.1396 YYXZ=             -0.2892 ZZXY=              0.0042
 N-N= 1.191342980658D+01 E-N=-1.558850678363D+02  KE= 5.625902390125D+01
 1\1\GINC-NODE85\SP\RM062X\def2TZVPP\H3N1\YANZ\22-Sep-2023\0\\# M062X/d
 ef2TZVPP\\tmpdir/M2_ref_3.gjf\\0,1\H,0,1.56486511,-1.54988166,-1.35238
 812\N,0,1.57433794,-1.83414819,-0.3822803\H,0,1.70522894,-2.83467573,-
 0.34611959\H,0,0.71543076,-1.54162555,0.08660896\\Version=ES64L-G16Rev
 A.03\State=1-A\HF=-56.5511174\RMSD=7.117e-10\Dipole=-0.4313492,-0.2472
 512,-0.263537\Quadrupole=-0.6250525,0.3273333,0.2977192,-0.855408,-0.8
 726505,-0.4236405\PG=C01 [X(H3N1)]\\@


 A HARD FALL SHOULD MEAN A HIGH BOUNCE 
 IF ONE IS MADE OF THE RIGHT MATERIAL.

                -- THE CHEMIST ANALYST, MARCH 1950
 Job cpu time:       0 days  0 hours  0 minutes 20.0 seconds.
 Elapsed time:       0 days  0 hours  0 minutes  3.6 seconds.
 File lengths (MBytes):  RWF=      6 Int=      0 D2E=      0 Chk=      1 Scr=      1
 Normal termination of Gaussian 16 at Fri Sep 22 16:47:25 2023.
