 Entering Gaussian System, Link 0=g16
 Initial command:
 /share/apps/gaussian/g16/l1.exe "/tmp/55604.mgr/Gau-81078.inp" -scrdir="/tmp/55604.mgr/"
 Entering Link 1 = /share/apps/gaussian/g16/l1.exe PID=     81079.
  
 Copyright (c) 1988,1990,1992,1993,1995,1998,2003,2009,2016,
            Gaussian, Inc.  All Rights Reserved.
  
 This is part of the Gaussian(R) 16 program.  It is based on
 the Gaussian(R) 09 system (copyright 2009, Gaussian, Inc.),
 the Gaussian(R) 03 system (copyright 2003, Gaussian, Inc.),
 the Gaussian(R) 98 system (copyright 1998, Gaussian, Inc.),
 the Gaussian(R) 94 system (copyright 1995, Gaussian, Inc.),
 the Gaussian 92(TM) system (copyright 1992, Gaussian, Inc.),
 the Gaussian 90(TM) system (copyright 1990, Gaussian, Inc.),
 the Gaussian 88(TM) system (copyright 1988, Gaussian, Inc.),
 the Gaussian 86(TM) system (copyright 1986, Carnegie Mellon
 University), and the Gaussian 82(TM) system (copyright 1983,
 Carnegie Mellon University). Gaussian is a federally registered
 trademark of Gaussian, Inc.
  
 This software contains proprietary and confidential information,
 including trade secrets, belonging to Gaussian, Inc.
  
 This software is provided under written license and may be
 used, copied, transmitted, or stored only in accord with that
 written license.
  
 The following legend is applicable only to US Government
 contracts under FAR:
  
                    RESTRICTED RIGHTS LEGEND
  
 Use, reproduction and disclosure by the US Government is
 subject to restrictions as set forth in subparagraphs (a)
 and (c) of the Commercial Computer Software - Restricted
 Rights clause in FAR 52.227-19.
  
 Gaussian, Inc.
 340 Quinnipiac St., Bldg. 40, Wallingford CT 06492
  
  
 ---------------------------------------------------------------
 Warning -- This program may not be used in any manner that
 competes with the business of Gaussian, Inc. or will provide
 assistance to any competitor of Gaussian, Inc.  The licensee
 of this program is prohibited from giving any competitor of
 Gaussian, Inc. access to this program.  By using this program,
 the user acknowledges that Gaussian, Inc. is engaged in the
 business of creating and licensing software in the field of
 computational chemistry and represents and warrants to the
 licensee that it is not a competitor of Gaussian, Inc. and that
 it will not use this program in any manner prohibited above.
 ---------------------------------------------------------------
  

 Cite this work as:
 Gaussian 16, Revision A.03,
 M. J. Frisch, G. W. Trucks, H. B. Schlegel, G. E. Scuseria, 
 M. A. Robb, J. R. Cheeseman, G. Scalmani, V. Barone, 
 G. A. Petersson, H. Nakatsuji, X. Li, M. Caricato, A. V. Marenich, 
 J. Bloino, B. G. Janesko, R. Gomperts, B. Mennucci, H. P. Hratchian, 
 J. V. Ortiz, A. F. Izmaylov, J. L. Sonnenberg, D. Williams-Young, 
 F. Ding, F. Lipparini, F. Egidi, J. Goings, B. Peng, A. Petrone, 
 T. Henderson, D. Ranasinghe, V. G. Zakrzewski, J. Gao, N. Rega, 
 G. Zheng, W. Liang, M. Hada, M. Ehara, K. Toyota, R. Fukuda, 
 J. Hasegawa, M. Ishida, T. Nakajima, Y. Honda, O. Kitao, H. Nakai, 
 T. Vreven, K. Throssell, J. A. Montgomery, Jr., J. E. Peralta, 
 F. Ogliaro, M. J. Bearpark, J. J. Heyd, E. N. Brothers, K. N. Kudin, 
 V. N. Staroverov, T. A. Keith, R. Kobayashi, J. Normand, 
 K. Raghavachari, A. P. Rendell, J. C. Burant, S. S. Iyengar, 
 J. Tomasi, M. Cossi, J. M. Millam, M. Klene, C. Adamo, R. Cammi, 
 J. W. Ochterski, R. L. Martin, K. Morokuma, O. Farkas, 
 J. B. Foresman, and D. J. Fox, Gaussian, Inc., Wallingford CT, 2016.
 
 ******************************************
 Gaussian 16:  ES64L-G16RevA.03 25-Dec-2016
                22-Sep-2023 
 ******************************************
 %nprocshared=6
 Will use up to    6 processors via shared memory.
 %mem=6GB
 -----------------
 # M062X/def2TZVPP
 -----------------
 1/38=1,172=1/1;
 2/12=2,17=6,18=5,40=1/2;
 3/5=44,7=202,11=2,25=1,30=1,74=-55/1,2,3;
 4//1;
 5/5=2,38=5/2;
 6/7=2,8=2,9=2,10=2,28=1/1;
 99/5=1,9=1/99;
 --------------------
 tmpdir/M2_ref_12.gjf
 --------------------
 Symbolic Z-matrix:
 Charge =  0 Multiplicity = 1
 C                     0.34766  -1.41637   0.28738 
 H                    -0.48403  -2.13238   0.17629 
 H                     1.31184  -1.74475  -0.23898 
 H                    -0.01353  -0.46004  -0.07811 
 H                     0.52394  -1.35096   1.36634 
 
                          Input orientation:                          
 ---------------------------------------------------------------------
 Center     Atomic      Atomic             Coordinates (Angstroms)
 Number     Number       Type             X           Y           Z
 ---------------------------------------------------------------------
      1          6           0        0.347659   -1.416372    0.287381
      2          1           0       -0.484033   -2.132381    0.176291
      3          1           0        1.311842   -1.744749   -0.238980
      4          1           0       -0.013529   -0.460038   -0.078114
      5          1           0        0.523937   -1.350958    1.366342
 ---------------------------------------------------------------------
                    Distance matrix (angstroms):
                    1          2          3          4          5
     1  C    0.000000
     2  H    1.103052   0.000000
     3  H    1.146532   1.883581   0.000000
     4  H    1.085641   1.755798   1.852827   0.000000
     5  H    1.095222   1.744376   1.831099   1.780186   0.000000
 Stoichiometry    CH4
 Framework group  C1[X(CH4)]
 Deg. of freedom     9
 Full point group                 C1      NOp   1
 Largest Abelian subgroup         C1      NOp   1
 Largest concise Abelian subgroup C1      NOp   1
                         Standard orientation:                         
 ---------------------------------------------------------------------
 Center     Atomic      Atomic             Coordinates (Angstroms)
 Number     Number       Type             X           Y           Z
 ---------------------------------------------------------------------
      1          6           0       -0.007137    0.006229    0.000803
      2          1           0        0.621128   -0.211967    0.880801
      3          1           0       -1.130472    0.024007    0.229579
      4          1           0        0.343258    0.949807   -0.406016
      5          1           0        0.208908   -0.799222   -0.709185
 ---------------------------------------------------------------------
 Rotational constants (GHZ):         162.6470826         150.9476156         146.9464472
 Standard basis: def2TZVPP (5D, 7F)
 There are    96 symmetry adapted cartesian basis functions of A   symmetry.
 There are    87 symmetry adapted basis functions of A   symmetry.
    87 basis functions,   119 primitive gaussians,    96 cartesian basis functions
     5 alpha electrons        5 beta electrons
       nuclear repulsion energy        13.2288738362 Hartrees.
 NAtoms=    5 NActive=    5 NUniq=    5 SFac= 1.00D+00 NAtFMM=   60 NAOKFM=F Big=F
 Integral buffers will be    131072 words long.
 Raffenetti 2 integral format.
 Two-electron integral symmetry is turned on.
 One-electron integrals computed using PRISM.
   1 Symmetry operations used in ECPInt.
 ECPInt:  NShTT=     630 NPrTT=    1412 LenC2=     631 LenP2D=    1376.
 LDataN:  DoStor=T MaxTD1= 6 Len=  172
 NBasis=    87 RedAO= T EigKep=  5.58D-04  NBF=    87
 NBsUse=    87 1.00D-06 EigRej= -1.00D+00 NBFU=    87
 ExpMin= 9.52D-02 ExpMax= 1.36D+04 ExpMxC= 4.63D+02 IAcc=3 IRadAn=         5 AccDes= 0.00D+00
 Harris functional with IExCor= 1009 and IRadAn=       5 diagonalized for initial guess.
 HarFok:  IExCor= 1009 AccDes= 0.00D+00 IRadAn=         5 IDoV= 1 UseB2=F ITyADJ=14
 ICtDFT=  3500011 ScaDFX=  1.000000  1.000000  1.000000  1.000000
 FoFCou: FMM=F IPFlag=           0 FMFlag=      100000 FMFlg1=           0
         NFxFlg=           0 DoJE=T BraDBF=F KetDBF=T FulRan=T
         wScrn=  0.000000 ICntrl=       500 IOpCl=  0 I1Cent=   200000004 NGrid=           0
         NMat0=    1 NMatS0=      1 NMatT0=    0 NMatD0=    1 NMtDS0=    0 NMtDT0=    0
 Petite list used in FoFCou.
 Keep R1 ints in memory in canonical form, NReq=12860297.
 Requested convergence on RMS density matrix=1.00D-08 within 128 cycles.
 Requested convergence on MAX density matrix=1.00D-06.
 Requested convergence on             energy=1.00D-06.
 No special actions if energy rises.
 Integral accuracy reduced to 1.0D-05 until final iterations.
 Initial convergence to 1.0D-05 achieved.  Increase integral accuracy.
 SCF Done:  E(RM062X) =  -40.4984994554     A.U. after   10 cycles
            NFock= 10  Conv=0.16D-08     -V/T= 2.0088

 **********************************************************************

            Population analysis using the SCF density.

 **********************************************************************

 Orbital symmetries:
       Occupied  (A) (A) (A) (A) (A)
       Virtual   (A) (A) (A) (A) (A) (A) (A) (A) (A) (A) (A) (A)
                 (A) (A) (A) (A) (A) (A) (A) (A) (A) (A) (A) (A)
                 (A) (A) (A) (A) (A) (A) (A) (A) (A) (A) (A) (A)
                 (A) (A) (A) (A) (A) (A) (A) (A) (A) (A) (A) (A)
                 (A) (A) (A) (A) (A) (A) (A) (A) (A) (A) (A) (A)
                 (A) (A) (A) (A) (A) (A) (A) (A) (A) (A) (A) (A)
                 (A) (A) (A) (A) (A) (A) (A) (A) (A) (A)
 The electronic state is 1-A.
 Alpha  occ. eigenvalues --  -10.52410  -0.78018  -0.45780  -0.45452  -0.44381
 Alpha virt. eigenvalues --    0.08461   0.15442   0.15982   0.16295   0.23704
 Alpha virt. eigenvalues --    0.23782   0.24185   0.41544   0.48780   0.50097
 Alpha virt. eigenvalues --    0.51126   0.54388   0.54702   0.56537   0.89839
 Alpha virt. eigenvalues --    0.90746   0.93061   0.96536   0.98205   0.98749
 Alpha virt. eigenvalues --    1.09681   1.11321   1.15060   1.35064   1.40583
 Alpha virt. eigenvalues --    1.41554   1.41718   1.46869   1.47834   1.56297
 Alpha virt. eigenvalues --    1.83507   1.89228   1.93285   2.50941   2.52070
 Alpha virt. eigenvalues --    2.54905   2.64723   2.82036   2.83168   2.84631
 Alpha virt. eigenvalues --    2.85280   2.86746   2.87595   2.91024   2.91556
 Alpha virt. eigenvalues --    3.26092   3.27181   3.31769   3.33584   3.36743
 Alpha virt. eigenvalues --    3.40139   3.44756   3.46208   3.57570   3.73998
 Alpha virt. eigenvalues --    3.76758   3.83167   3.84564   3.86685   3.95528
 Alpha virt. eigenvalues --    3.97947   4.06262   4.09095   4.10527   4.15515
 Alpha virt. eigenvalues --    4.42946   4.48057   4.49619   4.75493   4.95797
 Alpha virt. eigenvalues --    5.03734   5.06060   5.07863   5.13751   5.16697
 Alpha virt. eigenvalues --    5.18233   5.27838   5.32337   5.43847   5.47452
 Alpha virt. eigenvalues --    5.50147  23.73787
          Condensed to atoms (all electrons):
               1          2          3          4          5
     1  C    4.903247   0.396652   0.393936   0.401256   0.398134
     2  H    0.396652   0.546421  -0.018304  -0.023713  -0.024321
     3  H    0.393936  -0.018304   0.551776  -0.019967  -0.022042
     4  H    0.401256  -0.023713  -0.019967   0.534222  -0.020883
     5  H    0.398134  -0.024321  -0.022042  -0.020883   0.542836
 Mulliken charges:
               1
     1  C   -0.493225
     2  H    0.123265
     3  H    0.114600
     4  H    0.129085
     5  H    0.126276
 Sum of Mulliken charges =  -0.00000
 Mulliken charges with hydrogens summed into heavy atoms:
               1
     1  C   -0.000000
 Electronic spatial extent (au):  <R**2>=             36.5065
 Charge=             -0.0000 electrons
 Dipole moment (field-independent basis, Debye):
    X=              0.0599    Y=             -0.0129    Z=             -0.0214  Tot=              0.0649
 Quadrupole moment (field-independent basis, Debye-Ang):
   XX=             -8.2921   YY=             -8.5269   ZZ=             -8.7070
   XY=              0.0144   XZ=              0.0076   YZ=             -0.0107
 Traceless Quadrupole moment (field-independent basis, Debye-Ang):
   XX=              0.2166   YY=             -0.0182   ZZ=             -0.1984
   XY=              0.0144   XZ=              0.0076   YZ=             -0.0107
 Octapole moment (field-independent basis, Debye-Ang**2):
  XXX=             -0.6926  YYY=              0.2531  ZZZ=              0.0810  XYY=              0.4490
  XXY=              0.0170  XXZ=              0.3926  XZZ=              0.5042  YZZ=             -0.2773
  YYZ=             -0.5879  XYZ=             -0.1038
 Hexadecapole moment (field-independent basis, Debye-Ang**3):
 XXXX=            -17.0554 YYYY=            -16.4835 ZZZZ=            -16.9035 XXXY=             -0.0279
 XXXZ=             -0.1447 YYYX=              0.2593 YYYZ=             -0.0095 ZZZX=              0.4098
 ZZZY=              0.0687 XXYY=             -6.0289 XXZZ=             -5.7116 YYZZ=             -5.3763
 XXYZ=             -0.1183 YYXZ=             -0.2340 ZZXY=             -0.1544
 N-N= 1.322887383623D+01 E-N=-1.195786959230D+02  KE= 4.014713325429D+01
 1\1\GINC-NODE85\SP\RM062X\def2TZVPP\C1H4\YANZ\22-Sep-2023\0\\# M062X/d
 ef2TZVPP\\tmpdir/M2_ref_12.gjf\\0,1\C,0,0.34765889,-1.4163715,0.287380
 69\H,0,-0.48403329,-2.13238119,0.17629062\H,0,1.31184212,-1.74474857,-
 0.23898021\H,0,-0.01352871,-0.46003787,-0.07811369\H,0,0.52393733,-1.3
 5095828,1.36634202\\Version=ES64L-G16RevA.03\State=1-A\HF=-40.4984995\
 RMSD=1.622e-09\Dipole=-0.0181865,0.0067092,0.0166084\Quadrupole=0.1284
 54,-0.0792501,-0.0492039,-0.0594605,-0.0736097,-0.0508299\PG=C01 [X(C1
 H4)]\\@


 IT IS A CAPITAL MISTAKE TO THEORIZE BEFORE ONE HAS
 DATA.  INSENSIBLY ONE BEGINS TO TWIST FACTS TO SUIT
 THEORIES RATHER THAN THEORIES TO SUIT FACTS.

                                         -- SHERLOCK HOLMES
 Job cpu time:       0 days  0 hours  0 minutes 25.0 seconds.
 Elapsed time:       0 days  0 hours  0 minutes  4.6 seconds.
 File lengths (MBytes):  RWF=      6 Int=      0 D2E=      0 Chk=      2 Scr=      1
 Normal termination of Gaussian 16 at Fri Sep 22 16:47:42 2023.
