 Entering Gaussian System, Link 0=g16
 Initial command:
 /share/apps/gaussian/g16/l1.exe "/tmp/55604.mgr/Gau-82279.inp" -scrdir="/tmp/55604.mgr/"
 Entering Link 1 = /share/apps/gaussian/g16/l1.exe PID=     82280.
  
 Copyright (c) 1988,1990,1992,1993,1995,1998,2003,2009,2016,
            Gaussian, Inc.  All Rights Reserved.
  
 This is part of the Gaussian(R) 16 program.  It is based on
 the Gaussian(R) 09 system (copyright 2009, Gaussian, Inc.),
 the Gaussian(R) 03 system (copyright 2003, Gaussian, Inc.),
 the Gaussian(R) 98 system (copyright 1998, Gaussian, Inc.),
 the Gaussian(R) 94 system (copyright 1995, Gaussian, Inc.),
 the Gaussian 92(TM) system (copyright 1992, Gaussian, Inc.),
 the Gaussian 90(TM) system (copyright 1990, Gaussian, Inc.),
 the Gaussian 88(TM) system (copyright 1988, Gaussian, Inc.),
 the Gaussian 86(TM) system (copyright 1986, Carnegie Mellon
 University), and the Gaussian 82(TM) system (copyright 1983,
 Carnegie Mellon University). Gaussian is a federally registered
 trademark of Gaussian, Inc.
  
 This software contains proprietary and confidential information,
 including trade secrets, belonging to Gaussian, Inc.
  
 This software is provided under written license and may be
 used, copied, transmitted, or stored only in accord with that
 written license.
  
 The following legend is applicable only to US Government
 contracts under FAR:
  
                    RESTRICTED RIGHTS LEGEND
  
 Use, reproduction and disclosure by the US Government is
 subject to restrictions as set forth in subparagraphs (a)
 and (c) of the Commercial Computer Software - Restricted
 Rights clause in FAR 52.227-19.
  
 Gaussian, Inc.
 340 Quinnipiac St., Bldg. 40, Wallingford CT 06492
  
  
 ---------------------------------------------------------------
 Warning -- This program may not be used in any manner that
 competes with the business of Gaussian, Inc. or will provide
 assistance to any competitor of Gaussian, Inc.  The licensee
 of this program is prohibited from giving any competitor of
 Gaussian, Inc. access to this program.  By using this program,
 the user acknowledges that Gaussian, Inc. is engaged in the
 business of creating and licensing software in the field of
 computational chemistry and represents and warrants to the
 licensee that it is not a competitor of Gaussian, Inc. and that
 it will not use this program in any manner prohibited above.
 ---------------------------------------------------------------
  

 Cite this work as:
 Gaussian 16, Revision A.03,
 M. J. Frisch, G. W. Trucks, H. B. Schlegel, G. E. Scuseria, 
 M. A. Robb, J. R. Cheeseman, G. Scalmani, V. Barone, 
 G. A. Petersson, H. Nakatsuji, X. Li, M. Caricato, A. V. Marenich, 
 J. Bloino, B. G. Janesko, R. Gomperts, B. Mennucci, H. P. Hratchian, 
 J. V. Ortiz, A. F. Izmaylov, J. L. Sonnenberg, D. Williams-Young, 
 F. Ding, F. Lipparini, F. Egidi, J. Goings, B. Peng, A. Petrone, 
 T. Henderson, D. Ranasinghe, V. G. Zakrzewski, J. Gao, N. Rega, 
 G. Zheng, W. Liang, M. Hada, M. Ehara, K. Toyota, R. Fukuda, 
 J. Hasegawa, M. Ishida, T. Nakajima, Y. Honda, O. Kitao, H. Nakai, 
 T. Vreven, K. Throssell, J. A. Montgomery, Jr., J. E. Peralta, 
 F. Ogliaro, M. J. Bearpark, J. J. Heyd, E. N. Brothers, K. N. Kudin, 
 V. N. Staroverov, T. A. Keith, R. Kobayashi, J. Normand, 
 K. Raghavachari, A. P. Rendell, J. C. Burant, S. S. Iyengar, 
 J. Tomasi, M. Cossi, J. M. Millam, M. Klene, C. Adamo, R. Cammi, 
 J. W. Ochterski, R. L. Martin, K. Morokuma, O. Farkas, 
 J. B. Foresman, and D. J. Fox, Gaussian, Inc., Wallingford CT, 2016.
 
 ******************************************
 Gaussian 16:  ES64L-G16RevA.03 25-Dec-2016
                22-Sep-2023 
 ******************************************
 %nprocshared=6
 Will use up to    6 processors via shared memory.
 %mem=6GB
 -----------------
 # M062X/def2TZVPP
 -----------------
 1/38=1,172=1/1;
 2/12=2,17=6,18=5,40=1/2;
 3/5=44,7=202,11=2,25=1,30=1,74=-55/1,2,3;
 4//1;
 5/5=2,38=5/2;
 6/7=2,8=2,9=2,10=2,28=1/1;
 99/5=1,9=1/99;
 --------------------
 tmpdir/M2_ref_29.gjf
 --------------------
 Symbolic Z-matrix:
 Charge =  0 Multiplicity = 1
 O                    -1.13872   0.70486   0.39095 
 C                    -1.69922   0.2696    1.61255 
 H                    -2.02798  -0.7696    1.55196 
 H                    -0.51572   0.23128  -0.02064 
 H                    -0.97903   0.36429   2.42682 
 H                    -2.55937   0.89903   1.82787 
 
                          Input orientation:                          
 ---------------------------------------------------------------------
 Center     Atomic      Atomic             Coordinates (Angstroms)
 Number     Number       Type             X           Y           Z
 ---------------------------------------------------------------------
      1          8           0       -1.138724    0.704861    0.390950
      2          6           0       -1.699221    0.269601    1.612554
      3          1           0       -2.027979   -0.769596    1.551958
      4          1           0       -0.515722    0.231279   -0.020643
      5          1           0       -0.979032    0.364286    2.426820
      6          1           0       -2.559365    0.899031    1.827874
 ---------------------------------------------------------------------
                    Distance matrix (angstroms):
                    1          2          3          4          5
     1  O    0.000000
     2  C    1.412772   0.000000
     3  H    2.076712   1.091642   0.000000
     4  H    0.884205   2.017292   2.400363   0.000000
     5  H    2.070329   1.091177   1.775208   2.494478   0.000000
     6  H    2.029945   1.087379   1.772799   2.835380   1.772609
                    6
     6  H    0.000000
 Stoichiometry    CH4O
 Framework group  C1[X(CH4O)]
 Deg. of freedom    12
 Full point group                 C1      NOp   1
 Largest Abelian subgroup         C1      NOp   1
 Largest concise Abelian subgroup C1      NOp   1
                         Standard orientation:                         
 ---------------------------------------------------------------------
 Center     Atomic      Atomic             Coordinates (Angstroms)
 Number     Number       Type             X           Y           Z
 ---------------------------------------------------------------------
      1          8           0        0.736625    0.106830   -0.000055
      2          6           0       -0.670380   -0.020690    0.000081
      3          1           0       -1.007898   -0.709056   -0.777039
      4          1           0        1.260233   -0.605665    0.001827
      5          1           0       -1.028698   -0.377872    0.966878
      6          1           0       -1.094351    0.962091   -0.191712
 ---------------------------------------------------------------------
 Rotational constants (GHZ):         137.1143173          24.6804730          24.0802929
 Standard basis: def2TZVPP (5D, 7F)
 There are   132 symmetry adapted cartesian basis functions of A   symmetry.
 There are   118 symmetry adapted basis functions of A   symmetry.
   118 basis functions,   170 primitive gaussians,   132 cartesian basis functions
     9 alpha electrons        9 beta electrons
       nuclear repulsion energy        40.7623059287 Hartrees.
 NAtoms=    6 NActive=    6 NUniq=    6 SFac= 1.00D+00 NAtFMM=   60 NAOKFM=F Big=F
 Integral buffers will be    131072 words long.
 Raffenetti 2 integral format.
 Two-electron integral symmetry is turned on.
 One-electron integrals computed using PRISM.
   1 Symmetry operations used in ECPInt.
 ECPInt:  NShTT=    1081 NPrTT=    2684 LenC2=    1081 LenP2D=    2511.
 LDataN:  DoStor=T MaxTD1= 6 Len=  172
 NBasis=   118 RedAO= T EigKep=  5.83D-04  NBF=   118
 NBsUse=   118 1.00D-06 EigRej= -1.00D+00 NBFU=   118
 ExpMin= 9.52D-02 ExpMax= 2.70D+04 ExpMxC= 9.22D+02 IAcc=3 IRadAn=         5 AccDes= 0.00D+00
 Harris functional with IExCor= 1009 and IRadAn=       5 diagonalized for initial guess.
 HarFok:  IExCor= 1009 AccDes= 0.00D+00 IRadAn=         5 IDoV= 1 UseB2=F ITyADJ=14
 ICtDFT=  3500011 ScaDFX=  1.000000  1.000000  1.000000  1.000000
 FoFCou: FMM=F IPFlag=           0 FMFlag=      100000 FMFlg1=           0
         NFxFlg=           0 DoJE=T BraDBF=F KetDBF=T FulRan=T
         wScrn=  0.000000 ICntrl=       500 IOpCl=  0 I1Cent=   200000004 NGrid=           0
         NMat0=    1 NMatS0=      1 NMatT0=    0 NMatD0=    1 NMtDS0=    0 NMtDT0=    0
 Petite list used in FoFCou.
 Keep R1 ints in memory in canonical form, NReq=30406467.
 Requested convergence on RMS density matrix=1.00D-08 within 128 cycles.
 Requested convergence on MAX density matrix=1.00D-06.
 Requested convergence on             energy=1.00D-06.
 No special actions if energy rises.
 Integral accuracy reduced to 1.0D-05 until final iterations.
 Initial convergence to 1.0D-05 achieved.  Increase integral accuracy.
 SCF Done:  E(RM062X) =  -115.708022678     A.U. after   11 cycles
            NFock= 11  Conv=0.43D-08     -V/T= 2.0033

 **********************************************************************

            Population analysis using the SCF density.

 **********************************************************************

 Orbital symmetries:
       Occupied  (A) (A) (A) (A) (A) (A) (A) (A) (A)
       Virtual   (A) (A) (A) (A) (A) (A) (A) (A) (A) (A) (A) (A)
                 (A) (A) (A) (A) (A) (A) (A) (A) (A) (A) (A) (A)
                 (A) (A) (A) (A) (A) (A) (A) (A) (A) (A) (A) (A)
                 (A) (A) (A) (A) (A) (A) (A) (A) (A) (A) (A) (A)
                 (A) (A) (A) (A) (A) (A) (A) (A) (A) (A) (A) (A)
                 (A) (A) (A) (A) (A) (A) (A) (A) (A) (A) (A) (A)
                 (A) (A) (A) (A) (A) (A) (A) (A) (A) (A) (A) (A)
                 (A) (A) (A) (A) (A) (A) (A) (A) (A) (A) (A) (A)
                 (A) (A) (A) (A) (A) (A) (A) (A) (A) (A) (A) (A)
                 (A)
 The electronic state is 1-A.
 Alpha  occ. eigenvalues --  -19.60811 -10.57914  -1.14969  -0.79075  -0.59607
 Alpha  occ. eigenvalues --   -0.51618  -0.50608  -0.39723  -0.35335
 Alpha virt. eigenvalues --    0.06889   0.10650   0.15472   0.15894   0.17240
 Alpha virt. eigenvalues --    0.24514   0.25581   0.34720   0.39764   0.44120
 Alpha virt. eigenvalues --    0.47343   0.48236   0.52371   0.53636   0.54197
 Alpha virt. eigenvalues --    0.58758   0.66707   0.73886   0.77601   0.79541
 Alpha virt. eigenvalues --    0.90915   0.91806   0.98844   0.98932   1.04425
 Alpha virt. eigenvalues --    1.10119   1.12143   1.19761   1.28118   1.30047
 Alpha virt. eigenvalues --    1.33850   1.40944   1.46846   1.48177   1.54783
 Alpha virt. eigenvalues --    1.69507   1.78591   1.88711   1.90882   1.96683
 Alpha virt. eigenvalues --    2.03068   2.13173   2.15222   2.51071   2.52914
 Alpha virt. eigenvalues --    2.60229   2.61698   2.75110   2.76360   2.83764
 Alpha virt. eigenvalues --    2.86731   2.88670   2.91456   2.93182   2.99642
 Alpha virt. eigenvalues --    3.03290   3.11685   3.20641   3.28963   3.32439
 Alpha virt. eigenvalues --    3.39178   3.40727   3.44824   3.49108   3.54210
 Alpha virt. eigenvalues --    3.61360   3.63796   3.67718   3.73626   3.74904
 Alpha virt. eigenvalues --    3.80728   3.92438   3.94779   3.97302   4.02744
 Alpha virt. eigenvalues --    4.12805   4.14729   4.19878   4.26098   4.32882
 Alpha virt. eigenvalues --    4.42419   4.49222   4.57209   4.69642   4.80087
 Alpha virt. eigenvalues --    4.88301   4.95614   5.04706   5.09384   5.16859
 Alpha virt. eigenvalues --    5.20202   5.24075   5.28549   5.41904   5.49414
 Alpha virt. eigenvalues --    5.61099   5.67506   6.03093   6.08659   6.52631
 Alpha virt. eigenvalues --    6.59417   6.82499   6.90168   6.90500   7.05390
 Alpha virt. eigenvalues --    7.57084   7.63441  23.61174  44.17180
          Condensed to atoms (all electrons):
               1          2          3          4          5          6
     1  O    7.848559   0.269463  -0.045974   0.362417  -0.049318  -0.036755
     2  C    0.269463   4.707295   0.416964  -0.039957   0.415502   0.399805
     3  H   -0.045974   0.416964   0.601360  -0.008115  -0.044050  -0.031723
     4  H    0.362417  -0.039957  -0.008115   0.515224  -0.003940   0.008905
     5  H   -0.049318   0.415502  -0.044050  -0.003940   0.605544  -0.037096
     6  H   -0.036755   0.399805  -0.031723   0.008905  -0.037096   0.569764
 Mulliken charges:
               1
     1  O   -0.348392
     2  C   -0.169072
     3  H    0.111539
     4  H    0.165466
     5  H    0.113359
     6  H    0.127100
 Sum of Mulliken charges =  -0.00000
 Mulliken charges with hydrogens summed into heavy atoms:
               1
     1  O   -0.182926
     2  C    0.182926
 Electronic spatial extent (au):  <R**2>=             83.9234
 Charge=             -0.0000 electrons
 Dipole moment (field-independent basis, Debye):
    X=             -0.6449    Y=             -1.3524    Z=             -0.0151  Tot=              1.4983
 Quadrupole moment (field-independent basis, Debye-Ang):
   XX=            -12.1253   YY=            -12.5904   ZZ=            -13.6927
   XY=             -2.2156   XZ=              0.0446   YZ=             -0.0184
 Traceless Quadrupole moment (field-independent basis, Debye-Ang):
   XX=              0.6775   YY=              0.2124   ZZ=             -0.8899
   XY=             -2.2156   XZ=              0.0446   YZ=             -0.0184
 Octapole moment (field-independent basis, Debye-Ang**2):
  XXX=              5.9989  YYY=             -0.2942  ZZZ=              0.2550  XYY=              1.4578
  XXY=             -2.4177  XXZ=             -0.0471  XZZ=              0.4715  YZZ=             -0.5914
  YYZ=             -0.3110  XYZ=              0.0289
 Hexadecapole moment (field-independent basis, Debye-Ang**3):
 XXXX=            -59.5033 YYYY=            -20.2086 ZZZZ=            -20.0594 XXXY=             -4.5566
 XXXZ=              0.1094 YYYX=             -2.6291 YYYZ=             -0.0174 ZZZX=             -0.2509
 ZZZY=             -0.0290 XXYY=            -12.7221 XXZZ=            -14.3416 YYZZ=             -6.7526
 XXYZ=             -0.0661 YYXZ=              0.3613 ZZXY=              0.0195
 N-N= 4.076230592866D+01 E-N=-3.531253657812D+02  KE= 1.153310330957D+02
 1\1\GINC-NODE85\SP\RM062X\def2TZVPP\C1H4O1\YANZ\22-Sep-2023\0\\# M062X
 /def2TZVPP\\tmpdir/M2_ref_29.gjf\\0,1\O,0,-1.13872374,0.70486068,0.390
 9496\C,0,-1.69922068,0.26960066,1.61255371\H,0,-2.02797854,-0.76959552
 ,1.55195751\H,0,-0.51572218,0.23127937,-0.02064284\H,0,-0.97903174,0.3
 6428605,2.42682036\H,0,-2.55936524,0.89903077,1.82787369\\Version=ES64
 L-G16RevA.03\State=1-A\HF=-115.7080227\RMSD=4.260e-09\Dipole=0.1713664
 ,-0.5078276,0.2454558\Quadrupole=0.6472882,-0.6710717,0.0237834,-0.651
 5258,-1.1662627,0.9237006\PG=C01 [X(C1H4O1)]\\@


 FORGIVE MY NONSENSE AS I ALSO FORGIVE THOSE WHO THINK THEY TALK SENSE

                                                       -- ROBERT FROST
 Job cpu time:       0 days  0 hours  0 minutes 42.9 seconds.
 Elapsed time:       0 days  0 hours  0 minutes  7.9 seconds.
 File lengths (MBytes):  RWF=     11 Int=      0 D2E=      0 Chk=      2 Scr=      1
 Normal termination of Gaussian 16 at Fri Sep 22 16:48:35 2023.
