 Entering Gaussian System, Link 0=g16
 Initial command:
 /share/apps/gaussian/g16/l1.exe "/tmp/55604.mgr/Gau-82633.inp" -scrdir="/tmp/55604.mgr/"
 Entering Link 1 = /share/apps/gaussian/g16/l1.exe PID=     82634.
  
 Copyright (c) 1988,1990,1992,1993,1995,1998,2003,2009,2016,
            Gaussian, Inc.  All Rights Reserved.
  
 This is part of the Gaussian(R) 16 program.  It is based on
 the Gaussian(R) 09 system (copyright 2009, Gaussian, Inc.),
 the Gaussian(R) 03 system (copyright 2003, Gaussian, Inc.),
 the Gaussian(R) 98 system (copyright 1998, Gaussian, Inc.),
 the Gaussian(R) 94 system (copyright 1995, Gaussian, Inc.),
 the Gaussian 92(TM) system (copyright 1992, Gaussian, Inc.),
 the Gaussian 90(TM) system (copyright 1990, Gaussian, Inc.),
 the Gaussian 88(TM) system (copyright 1988, Gaussian, Inc.),
 the Gaussian 86(TM) system (copyright 1986, Carnegie Mellon
 University), and the Gaussian 82(TM) system (copyright 1983,
 Carnegie Mellon University). Gaussian is a federally registered
 trademark of Gaussian, Inc.
  
 This software contains proprietary and confidential information,
 including trade secrets, belonging to Gaussian, Inc.
  
 This software is provided under written license and may be
 used, copied, transmitted, or stored only in accord with that
 written license.
  
 The following legend is applicable only to US Government
 contracts under FAR:
  
                    RESTRICTED RIGHTS LEGEND
  
 Use, reproduction and disclosure by the US Government is
 subject to restrictions as set forth in subparagraphs (a)
 and (c) of the Commercial Computer Software - Restricted
 Rights clause in FAR 52.227-19.
  
 Gaussian, Inc.
 340 Quinnipiac St., Bldg. 40, Wallingford CT 06492
  
  
 ---------------------------------------------------------------
 Warning -- This program may not be used in any manner that
 competes with the business of Gaussian, Inc. or will provide
 assistance to any competitor of Gaussian, Inc.  The licensee
 of this program is prohibited from giving any competitor of
 Gaussian, Inc. access to this program.  By using this program,
 the user acknowledges that Gaussian, Inc. is engaged in the
 business of creating and licensing software in the field of
 computational chemistry and represents and warrants to the
 licensee that it is not a competitor of Gaussian, Inc. and that
 it will not use this program in any manner prohibited above.
 ---------------------------------------------------------------
  

 Cite this work as:
 Gaussian 16, Revision A.03,
 M. J. Frisch, G. W. Trucks, H. B. Schlegel, G. E. Scuseria, 
 M. A. Robb, J. R. Cheeseman, G. Scalmani, V. Barone, 
 G. A. Petersson, H. Nakatsuji, X. Li, M. Caricato, A. V. Marenich, 
 J. Bloino, B. G. Janesko, R. Gomperts, B. Mennucci, H. P. Hratchian, 
 J. V. Ortiz, A. F. Izmaylov, J. L. Sonnenberg, D. Williams-Young, 
 F. Ding, F. Lipparini, F. Egidi, J. Goings, B. Peng, A. Petrone, 
 T. Henderson, D. Ranasinghe, V. G. Zakrzewski, J. Gao, N. Rega, 
 G. Zheng, W. Liang, M. Hada, M. Ehara, K. Toyota, R. Fukuda, 
 J. Hasegawa, M. Ishida, T. Nakajima, Y. Honda, O. Kitao, H. Nakai, 
 T. Vreven, K. Throssell, J. A. Montgomery, Jr., J. E. Peralta, 
 F. Ogliaro, M. J. Bearpark, J. J. Heyd, E. N. Brothers, K. N. Kudin, 
 V. N. Staroverov, T. A. Keith, R. Kobayashi, J. Normand, 
 K. Raghavachari, A. P. Rendell, J. C. Burant, S. S. Iyengar, 
 J. Tomasi, M. Cossi, J. M. Millam, M. Klene, C. Adamo, R. Cammi, 
 J. W. Ochterski, R. L. Martin, K. Morokuma, O. Farkas, 
 J. B. Foresman, and D. J. Fox, Gaussian, Inc., Wallingford CT, 2016.
 
 ******************************************
 Gaussian 16:  ES64L-G16RevA.03 25-Dec-2016
                22-Sep-2023 
 ******************************************
 %nprocshared=6
 Will use up to    6 processors via shared memory.
 %mem=6GB
 -----------------
 # M062X/def2TZVPP
 -----------------
 1/38=1,172=1/1;
 2/12=2,17=6,18=5,40=1/2;
 3/5=44,7=202,11=2,25=1,30=1,74=-55/1,2,3;
 4//1;
 5/5=2,38=5/2;
 6/7=2,8=2,9=2,10=2,28=1/1;
 99/5=1,9=1/99;
 --------------------
 tmpdir/M2_ref_23.gjf
 --------------------
 Symbolic Z-matrix:
 Charge =  0 Multiplicity = 1
 B                    -0.17753  -0.0258   -0.24407 
 O                     0.3197    0.44634  -1.41635 
 C                    -0.14513   1.67639  -1.94493 
 H                     0.20989  -1.05159   0.14797 
 H                    -0.97644   0.5815    0.28373 
 H                    -1.2164    1.63431  -2.14262 
 H                     0.04661   2.49397  -1.25008 
 H                     0.38933   1.8573   -2.87406 
 
                          Input orientation:                          
 ---------------------------------------------------------------------
 Center     Atomic      Atomic             Coordinates (Angstroms)
 Number     Number       Type             X           Y           Z
 ---------------------------------------------------------------------
      1          5           0       -0.177531   -0.025800   -0.244072
      2          8           0        0.319702    0.446335   -1.416353
      3          6           0       -0.145127    1.676387   -1.944927
      4          1           0        0.209890   -1.051594    0.147969
      5          1           0       -0.976435    0.581495    0.283732
      6          1           0       -1.216399    1.634306   -2.142615
      7          1           0        0.046613    2.493966   -1.250080
      8          1           0        0.389333    1.857303   -2.874064
 ---------------------------------------------------------------------
                    Distance matrix (angstroms):
                    1          2          3          4          5
     1  B    0.000000
     2  O    1.358085   0.000000
     3  C    2.406532   1.417210   0.000000
     4  H    1.164493   2.168630   3.456607   0.000000
     5  H    1.133857   2.142085   2.618545   2.023062   0.000000
     6  H    2.727575   2.073243   1.090172   3.807248   2.655778
     7  H    2.722410   2.072442   1.089960   3.814734   2.656455
     8  H    3.283941   2.029926   1.087049   4.198400   3.669426
                    6          7          8
     6  H    0.000000
     7  H    1.769416   0.000000
     8  H    1.778516   1.777674   0.000000
 Stoichiometry    CH5BO
 Framework group  C1[X(CH5BO)]
 Deg. of freedom    18
 Full point group                 C1      NOp   1
 Largest Abelian subgroup         C1      NOp   1
 Largest concise Abelian subgroup C1      NOp   1
                         Standard orientation:                         
 ---------------------------------------------------------------------
 Center     Atomic      Atomic             Coordinates (Angstroms)
 Number     Number       Type             X           Y           Z
 ---------------------------------------------------------------------
      1          5           0        1.286568    0.228074   -0.005633
      2          8           0        0.140184   -0.500056   -0.000585
      3          6           0       -1.118715    0.150831    0.001043
      4          1           0        2.302823   -0.340016    0.017696
      5          1           0        1.204500    1.358901    0.005628
      6          1           0       -1.231904    0.775754    0.887122
      7          1           0       -1.231177    0.779390   -0.882290
      8          1           0       -1.886258   -0.618939   -0.001570
 ---------------------------------------------------------------------
 Rotational constants (GHZ):          50.8538265          10.4239674           9.1448694
 Standard basis: def2TZVPP (5D, 7F)
 There are   183 symmetry adapted cartesian basis functions of A   symmetry.
 There are   163 symmetry adapted basis functions of A   symmetry.
   163 basis functions,   238 primitive gaussians,   183 cartesian basis functions
    12 alpha electrons       12 beta electrons
       nuclear repulsion energy        70.5371487113 Hartrees.
 NAtoms=    8 NActive=    8 NUniq=    8 SFac= 1.00D+00 NAtFMM=   60 NAOKFM=F Big=F
 Integral buffers will be    131072 words long.
 Raffenetti 2 integral format.
 Two-electron integral symmetry is turned on.
 One-electron integrals computed using PRISM.
   1 Symmetry operations used in ECPInt.
 ECPInt:  NShTT=    2016 NPrTT=    5131 LenC2=    2015 LenP2D=    4650.
 LDataN:  DoStor=T MaxTD1= 6 Len=  172
 NBasis=   163 RedAO= T EigKep=  3.80D-04  NBF=   163
 NBsUse=   163 1.00D-06 EigRej= -1.00D+00 NBFU=   163
 ExpMin= 6.06D-02 ExpMax= 2.70D+04 ExpMxC= 9.22D+02 IAcc=3 IRadAn=         5 AccDes= 0.00D+00
 Harris functional with IExCor= 1009 and IRadAn=       5 diagonalized for initial guess.
 HarFok:  IExCor= 1009 AccDes= 0.00D+00 IRadAn=         5 IDoV= 1 UseB2=F ITyADJ=14
 ICtDFT=  3500011 ScaDFX=  1.000000  1.000000  1.000000  1.000000
 FoFCou: FMM=F IPFlag=           0 FMFlag=      100000 FMFlg1=           0
         NFxFlg=           0 DoJE=T BraDBF=F KetDBF=T FulRan=T
         wScrn=  0.000000 ICntrl=       500 IOpCl=  0 I1Cent=   200000004 NGrid=           0
         NMat0=    1 NMatS0=      1 NMatT0=    0 NMatD0=    1 NMtDS0=    0 NMtDT0=    0
 Petite list used in FoFCou.
 Keep R1 ints in memory in canonical form, NReq=95387557.
 Requested convergence on RMS density matrix=1.00D-08 within 128 cycles.
 Requested convergence on MAX density matrix=1.00D-06.
 Requested convergence on             energy=1.00D-06.
 No special actions if energy rises.
 Integral accuracy reduced to 1.0D-05 until final iterations.
 Initial convergence to 1.0D-05 achieved.  Increase integral accuracy.
 SCF Done:  E(RM062X) =  -141.196292382     A.U. after   12 cycles
            NFock= 12  Conv=0.58D-08     -V/T= 2.0044

 **********************************************************************

            Population analysis using the SCF density.

 **********************************************************************

 Orbital symmetries:
       Occupied  (A) (A) (A) (A) (A) (A) (A) (A) (A) (A) (A) (A)
       Virtual   (A) (A) (A) (A) (A) (A) (A) (A) (A) (A) (A) (A)
                 (A) (A) (A) (A) (A) (A) (A) (A) (A) (A) (A) (A)
                 (A) (A) (A) (A) (A) (A) (A) (A) (A) (A) (A) (A)
                 (A) (A) (A) (A) (A) (A) (A) (A) (A) (A) (A) (A)
                 (A) (A) (A) (A) (A) (A) (A) (A) (A) (A) (A) (A)
                 (A) (A) (A) (A) (A) (A) (A) (A) (A) (A) (A) (A)
                 (A) (A) (A) (A) (A) (A) (A) (A) (A) (A) (A) (A)
                 (A) (A) (A) (A) (A) (A) (A) (A) (A) (A) (A) (A)
                 (A) (A) (A) (A) (A) (A) (A) (A) (A) (A) (A) (A)
                 (A) (A) (A) (A) (A) (A) (A) (A) (A) (A) (A) (A)
                 (A) (A) (A) (A) (A) (A) (A) (A) (A) (A) (A) (A)
                 (A) (A) (A) (A) (A) (A) (A) (A) (A) (A) (A) (A)
                 (A) (A) (A) (A) (A) (A) (A)
 The electronic state is 1-A.
 Alpha  occ. eigenvalues --  -19.64564 -10.58903  -7.04907  -1.16021  -0.79621
 Alpha  occ. eigenvalues --   -0.61814  -0.54469  -0.53791  -0.50518  -0.42900
 Alpha  occ. eigenvalues --   -0.39173  -0.37308
 Alpha virt. eigenvalues --    0.01297   0.06912   0.09856   0.10600   0.12554
 Alpha virt. eigenvalues --    0.15287   0.16265   0.17961   0.18714   0.20439
 Alpha virt. eigenvalues --    0.25321   0.25400   0.29212   0.35995   0.37538
 Alpha virt. eigenvalues --    0.39598   0.42600   0.45042   0.47130   0.48060
 Alpha virt. eigenvalues --    0.50326   0.55093   0.56387   0.57681   0.61484
 Alpha virt. eigenvalues --    0.62348   0.68360   0.71024   0.74440   0.76695
 Alpha virt. eigenvalues --    0.77995   0.81552   0.86545   0.89938   0.94443
 Alpha virt. eigenvalues --    0.95106   0.97386   0.99054   1.00261   1.04399
 Alpha virt. eigenvalues --    1.09718   1.10553   1.12709   1.14667   1.25116
 Alpha virt. eigenvalues --    1.28425   1.28704   1.32659   1.39412   1.45400
 Alpha virt. eigenvalues --    1.46027   1.46695   1.48664   1.54646   1.60608
 Alpha virt. eigenvalues --    1.64900   1.68813   1.75096   1.81912   1.87944
 Alpha virt. eigenvalues --    1.91158   1.94922   1.99036   2.01300   2.09155
 Alpha virt. eigenvalues --    2.10716   2.11592   2.23261   2.26188   2.26257
 Alpha virt. eigenvalues --    2.28690   2.39882   2.46088   2.49782   2.56576
 Alpha virt. eigenvalues --    2.57448   2.67874   2.72430   2.80111   2.82665
 Alpha virt. eigenvalues --    2.90602   2.90687   2.92724   3.02306   3.03707
 Alpha virt. eigenvalues --    3.04252   3.07802   3.12822   3.23780   3.28277
 Alpha virt. eigenvalues --    3.28419   3.32436   3.36072   3.44158   3.44530
 Alpha virt. eigenvalues --    3.52371   3.55202   3.58704   3.61337   3.64489
 Alpha virt. eigenvalues --    3.69503   3.74892   3.78916   3.82820   3.85166
 Alpha virt. eigenvalues --    3.90335   3.92985   3.97118   3.99922   4.02291
 Alpha virt. eigenvalues --    4.06866   4.11088   4.13199   4.19090   4.22381
 Alpha virt. eigenvalues --    4.25696   4.34839   4.41528   4.44302   4.52025
 Alpha virt. eigenvalues --    4.54611   4.60714   4.67664   4.71825   4.83219
 Alpha virt. eigenvalues --    4.93472   4.95394   4.97280   5.03552   5.05232
 Alpha virt. eigenvalues --    5.17661   5.22449   5.29713   5.34536   5.37230
 Alpha virt. eigenvalues --    5.49885   5.52329   5.53711   5.73036   5.88460
 Alpha virt. eigenvalues --    5.98410   6.24805   6.37233   6.69902   6.70924
 Alpha virt. eigenvalues --    6.89636   7.17935   7.27804  16.04924  23.65228
 Alpha virt. eigenvalues --   43.99507
          Condensed to atoms (all electrons):
               1          2          3          4          5          6
     1  B    3.682198   0.452117  -0.053646   0.420719   0.432429  -0.014982
     2  O    0.452117   7.783612   0.222579  -0.016664  -0.038499  -0.037861
     3  C   -0.053646   0.222579   4.789075   0.003986  -0.004634   0.415910
     4  H    0.420719  -0.016664   0.003986   0.624283  -0.037426  -0.000439
     5  H    0.432429  -0.038499  -0.004634  -0.037426   0.633763   0.001931
     6  H   -0.014982  -0.037861   0.415910  -0.000439   0.001931   0.576514
     7  H   -0.015443  -0.037936   0.415405  -0.000540   0.002042  -0.040121
     8  H    0.007604  -0.035992   0.416090   0.000105  -0.000186  -0.028548
               7          8
     1  B   -0.015443   0.007604
     2  O   -0.037936  -0.035992
     3  C    0.415405   0.416090
     4  H   -0.000540   0.000105
     5  H    0.002042  -0.000186
     6  H   -0.040121  -0.028548
     7  H    0.578211  -0.028382
     8  H   -0.028382   0.533113
 Mulliken charges:
               1
     1  B    0.089004
     2  O   -0.291355
     3  C   -0.204766
     4  H    0.005977
     5  H    0.010580
     6  H    0.127598
     7  H    0.126765
     8  H    0.136197
 Sum of Mulliken charges =  -0.00000
 Mulliken charges with hydrogens summed into heavy atoms:
               1
     1  B    0.105561
     2  O   -0.291355
     3  C    0.185794
 Electronic spatial extent (au):  <R**2>=            175.4602
 Charge=             -0.0000 electrons
 Dipole moment (field-independent basis, Debye):
    X=             -1.2294    Y=              0.9241    Z=             -0.0248  Tot=              1.5382
 Quadrupole moment (field-independent basis, Debye-Ang):
   XX=            -19.0645   YY=            -21.2981   ZZ=            -18.8539
   XY=              0.0686   XZ=             -0.0456   YZ=             -0.0013
 Traceless Quadrupole moment (field-independent basis, Debye-Ang):
   XX=              0.6743   YY=             -1.5593   ZZ=              0.8850
   XY=              0.0686   XZ=             -0.0456   YZ=             -0.0013
 Octapole moment (field-independent basis, Debye-Ang**2):
  XXX=            -10.6498  YYY=             -3.6556  ZZZ=             -0.0201  XYY=             -3.7845
  XXY=             -1.8370  XXZ=             -0.0534  XZZ=             -1.3005  YZZ=             -0.0468
  YYZ=              0.0112  XYZ=             -0.0121
 Hexadecapole moment (field-independent basis, Debye-Ang**3):
 XXXX=           -187.9593 YYYY=            -53.3218 ZZZZ=            -25.5708 XXXY=             -0.2466
 XXXZ=             -0.0646 YYYX=             -2.3491 YYYZ=              0.0213 ZZZX=             -0.0669
 ZZZY=              0.0041 XXYY=            -38.8908 XXZZ=            -33.6883 YYZZ=            -12.6092
 XXYZ=             -0.0150 YYXZ=              0.0118 ZZXY=             -0.9801
 N-N= 7.053714871129D+01 E-N=-4.708747032094D+02  KE= 1.405845910667D+02
 1\1\GINC-NODE85\SP\RM062X\def2TZVPP\C1H5B1O1\YANZ\22-Sep-2023\0\\# M06
 2X/def2TZVPP\\tmpdir/M2_ref_23.gjf\\0,1\B,0,-0.17753149,-0.02579991,-0
 .24407203\O,0,0.3197022,0.44633527,-1.41635304\C,0,-0.14512688,1.67638
 702,-1.94492662\H,0,0.2098899,-1.05159398,0.14796895\H,0,-0.97643508,0
 .58149522,0.28373191\H,0,-1.21639868,1.63430638,-2.14261544\H,0,0.0466
 127,2.49396636,-1.25007974\H,0,0.38933317,1.85730279,-2.8740643\\Versi
 on=ES64L-G16RevA.03\State=1-A\HF=-141.1962924\RMSD=5.798e-09\Dipole=-0
 .2504681,0.5331572,-0.1386488\Quadrupole=-0.2306688,0.0810973,0.149571
 5,0.6307117,0.6543162,-0.3883469\PG=C01 [X(C1H5B1O1)]\\@


 IT IS THE BEHAVIOR AND DISTRIBUTION OF THE ELECTRONS 
 AROUND THE NUCLEUS THAT GIVES THE FUNDAMENTAL 
 CHARACTER OF AN ATOM:  IT MUST BE THE SAME FOR MOLECULES.

                               -- C. A. COULSON, 1951
 Job cpu time:       0 days  0 hours  1 minutes 23.6 seconds.
 Elapsed time:       0 days  0 hours  0 minutes 15.3 seconds.
 File lengths (MBytes):  RWF=     14 Int=      0 D2E=      0 Chk=      3 Scr=      1
 Normal termination of Gaussian 16 at Fri Sep 22 16:48:51 2023.
