 Entering Gaussian System, Link 0=g16
 Initial command:
 /share/apps/gaussian/g16/l1.exe "/tmp/55604.mgr/Gau-80582.inp" -scrdir="/tmp/55604.mgr/"
 Entering Link 1 = /share/apps/gaussian/g16/l1.exe PID=     80587.
  
 Copyright (c) 1988,1990,1992,1993,1995,1998,2003,2009,2016,
            Gaussian, Inc.  All Rights Reserved.
  
 This is part of the Gaussian(R) 16 program.  It is based on
 the Gaussian(R) 09 system (copyright 2009, Gaussian, Inc.),
 the Gaussian(R) 03 system (copyright 2003, Gaussian, Inc.),
 the Gaussian(R) 98 system (copyright 1998, Gaussian, Inc.),
 the Gaussian(R) 94 system (copyright 1995, Gaussian, Inc.),
 the Gaussian 92(TM) system (copyright 1992, Gaussian, Inc.),
 the Gaussian 90(TM) system (copyright 1990, Gaussian, Inc.),
 the Gaussian 88(TM) system (copyright 1988, Gaussian, Inc.),
 the Gaussian 86(TM) system (copyright 1986, Carnegie Mellon
 University), and the Gaussian 82(TM) system (copyright 1983,
 Carnegie Mellon University). Gaussian is a federally registered
 trademark of Gaussian, Inc.
  
 This software contains proprietary and confidential information,
 including trade secrets, belonging to Gaussian, Inc.
  
 This software is provided under written license and may be
 used, copied, transmitted, or stored only in accord with that
 written license.
  
 The following legend is applicable only to US Government
 contracts under FAR:
  
                    RESTRICTED RIGHTS LEGEND
  
 Use, reproduction and disclosure by the US Government is
 subject to restrictions as set forth in subparagraphs (a)
 and (c) of the Commercial Computer Software - Restricted
 Rights clause in FAR 52.227-19.
  
 Gaussian, Inc.
 340 Quinnipiac St., Bldg. 40, Wallingford CT 06492
  
  
 ---------------------------------------------------------------
 Warning -- This program may not be used in any manner that
 competes with the business of Gaussian, Inc. or will provide
 assistance to any competitor of Gaussian, Inc.  The licensee
 of this program is prohibited from giving any competitor of
 Gaussian, Inc. access to this program.  By using this program,
 the user acknowledges that Gaussian, Inc. is engaged in the
 business of creating and licensing software in the field of
 computational chemistry and represents and warrants to the
 licensee that it is not a competitor of Gaussian, Inc. and that
 it will not use this program in any manner prohibited above.
 ---------------------------------------------------------------
  

 Cite this work as:
 Gaussian 16, Revision A.03,
 M. J. Frisch, G. W. Trucks, H. B. Schlegel, G. E. Scuseria, 
 M. A. Robb, J. R. Cheeseman, G. Scalmani, V. Barone, 
 G. A. Petersson, H. Nakatsuji, X. Li, M. Caricato, A. V. Marenich, 
 J. Bloino, B. G. Janesko, R. Gomperts, B. Mennucci, H. P. Hratchian, 
 J. V. Ortiz, A. F. Izmaylov, J. L. Sonnenberg, D. Williams-Young, 
 F. Ding, F. Lipparini, F. Egidi, J. Goings, B. Peng, A. Petrone, 
 T. Henderson, D. Ranasinghe, V. G. Zakrzewski, J. Gao, N. Rega, 
 G. Zheng, W. Liang, M. Hada, M. Ehara, K. Toyota, R. Fukuda, 
 J. Hasegawa, M. Ishida, T. Nakajima, Y. Honda, O. Kitao, H. Nakai, 
 T. Vreven, K. Throssell, J. A. Montgomery, Jr., J. E. Peralta, 
 F. Ogliaro, M. J. Bearpark, J. J. Heyd, E. N. Brothers, K. N. Kudin, 
 V. N. Staroverov, T. A. Keith, R. Kobayashi, J. Normand, 
 K. Raghavachari, A. P. Rendell, J. C. Burant, S. S. Iyengar, 
 J. Tomasi, M. Cossi, J. M. Millam, M. Klene, C. Adamo, R. Cammi, 
 J. W. Ochterski, R. L. Martin, K. Morokuma, O. Farkas, 
 J. B. Foresman, and D. J. Fox, Gaussian, Inc., Wallingford CT, 2016.
 
 ******************************************
 Gaussian 16:  ES64L-G16RevA.03 25-Dec-2016
                22-Sep-2023 
 ******************************************
 %nprocshared=6
 Will use up to    6 processors via shared memory.
 %mem=6GB
 -----------------
 # M062X/def2TZVPP
 -----------------
 1/38=1,172=1/1;
 2/12=2,17=6,18=5,40=1/2;
 3/5=44,7=202,11=2,25=1,30=1,74=-55/1,2,3;
 4//1;
 5/5=2,38=5/2;
 6/7=2,8=2,9=2,10=2,28=1/1;
 99/5=1,9=1/99;
 -------------------
 tmpdir/M2_ref_6.gjf
 -------------------
 Symbolic Z-matrix:
 Charge =  0 Multiplicity = 1
 B                    -0.17753  -0.0258   -0.24407 
 C                     0.34766  -1.41637   0.28738 
 H                    -0.97644   0.5815    0.28373 
 H                     0.23575   0.36662  -1.21842 
 H                     1.31184  -1.74475  -0.23898 
 H                    -0.48403  -2.13238   0.17629 
 H                     0.52394  -1.35096   1.36634 
 
                          Input orientation:                          
 ---------------------------------------------------------------------
 Center     Atomic      Atomic             Coordinates (Angstroms)
 Number     Number       Type             X           Y           Z
 ---------------------------------------------------------------------
      1          5           0       -0.177531   -0.025800   -0.244072
      2          6           0        0.347659   -1.416372    0.287381
      3          1           0       -0.976435    0.581495    0.283732
      4          1           0        0.235749    0.366619   -1.218424
      5          1           0        1.311842   -1.744749   -0.238980
      6          1           0       -0.484033   -2.132381    0.176291
      7          1           0        0.523937   -1.350958    1.366342
 ---------------------------------------------------------------------
                    Distance matrix (angstroms):
                    1          2          3          4          5
     1  B    0.000000
     2  C    1.578593   0.000000
     3  H    1.133857   2.396812   0.000000
     4  H    1.128785   2.336456   1.942172   0.000000
     5  H    2.274433   1.146532   3.304671   2.564208   0.000000
     6  H    2.169869   1.103052   2.760277   2.950986   1.883581
     7  H    2.200349   1.095222   2.675358   3.116752   1.831099
                    6          7
     6  H    0.000000
     7  H    1.744376   0.000000
 Stoichiometry    CH5B
 Framework group  C1[X(CH5B)]
 Deg. of freedom    15
 Full point group                 C1      NOp   1
 Largest Abelian subgroup         C1      NOp   1
 Largest concise Abelian subgroup C1      NOp   1
                         Standard orientation:                         
 ---------------------------------------------------------------------
 Center     Atomic      Atomic             Coordinates (Angstroms)
 Number     Number       Type             X           Y           Z
 ---------------------------------------------------------------------
      1          5           0        0.885050    0.004159   -0.010531
      2          6           0       -0.693483    0.001959    0.003146
      3          1           0        1.509150   -0.941834   -0.045565
      4          1           0        1.420473    0.995669    0.055687
      5          1           0       -1.129624    1.040833   -0.209124
      6          1           0       -1.001112   -0.417752    0.975735
      7          1           0       -1.063240   -0.709465   -0.742955
 ---------------------------------------------------------------------
 Rotational constants (GHZ):          96.5492998          21.3439669          19.6035730
 Standard basis: def2TZVPP (5D, 7F)
 There are   147 symmetry adapted cartesian basis functions of A   symmetry.
 There are   132 symmetry adapted basis functions of A   symmetry.
   132 basis functions,   187 primitive gaussians,   147 cartesian basis functions
     8 alpha electrons        8 beta electrons
       nuclear repulsion energy        31.8005717198 Hartrees.
 NAtoms=    7 NActive=    7 NUniq=    7 SFac= 1.00D+00 NAtFMM=   60 NAOKFM=F Big=F
 Integral buffers will be    131072 words long.
 Raffenetti 2 integral format.
 Two-electron integral symmetry is turned on.
 One-electron integrals computed using PRISM.
   1 Symmetry operations used in ECPInt.
 ECPInt:  NShTT=    1378 NPrTT=    3299 LenC2=    1379 LenP2D=    3097.
 LDataN:  DoStor=T MaxTD1= 6 Len=  172
 NBasis=   132 RedAO= T EigKep=  5.00D-04  NBF=   132
 NBsUse=   132 1.00D-06 EigRej= -1.00D+00 NBFU=   132
 ExpMin= 6.06D-02 ExpMax= 1.36D+04 ExpMxC= 4.63D+02 IAcc=3 IRadAn=         5 AccDes= 0.00D+00
 Harris functional with IExCor= 1009 and IRadAn=       5 diagonalized for initial guess.
 HarFok:  IExCor= 1009 AccDes= 0.00D+00 IRadAn=         5 IDoV= 1 UseB2=F ITyADJ=14
 ICtDFT=  3500011 ScaDFX=  1.000000  1.000000  1.000000  1.000000
 FoFCou: FMM=F IPFlag=           0 FMFlag=      100000 FMFlg1=           0
         NFxFlg=           0 DoJE=T BraDBF=F KetDBF=T FulRan=T
         wScrn=  0.000000 ICntrl=       500 IOpCl=  0 I1Cent=   200000004 NGrid=           0
         NMat0=    1 NMatS0=      1 NMatT0=    0 NMatD0=    1 NMtDS0=    0 NMtDT0=    0
 Petite list used in FoFCou.
 Keep R1 ints in memory in canonical form, NReq=44362774.
 Requested convergence on RMS density matrix=1.00D-08 within 128 cycles.
 Requested convergence on MAX density matrix=1.00D-06.
 Requested convergence on             energy=1.00D-06.
 No special actions if energy rises.
 Integral accuracy reduced to 1.0D-05 until final iterations.
 Initial convergence to 1.0D-05 achieved.  Increase integral accuracy.
 SCF Done:  E(RM062X) =  -65.9165245054     A.U. after   10 cycles
            NFock= 10  Conv=0.89D-08     -V/T= 2.0056

 **********************************************************************

            Population analysis using the SCF density.

 **********************************************************************

 Orbital symmetries:
       Occupied  (A) (A) (A) (A) (A) (A) (A) (A)
       Virtual   (A) (A) (A) (A) (A) (A) (A) (A) (A) (A) (A) (A)
                 (A) (A) (A) (A) (A) (A) (A) (A) (A) (A) (A) (A)
                 (A) (A) (A) (A) (A) (A) (A) (A) (A) (A) (A) (A)
                 (A) (A) (A) (A) (A) (A) (A) (A) (A) (A) (A) (A)
                 (A) (A) (A) (A) (A) (A) (A) (A) (A) (A) (A) (A)
                 (A) (A) (A) (A) (A) (A) (A) (A) (A) (A) (A) (A)
                 (A) (A) (A) (A) (A) (A) (A) (A) (A) (A) (A) (A)
                 (A) (A) (A) (A) (A) (A) (A) (A) (A) (A) (A) (A)
                 (A) (A) (A) (A) (A) (A) (A) (A) (A) (A) (A) (A)
                 (A) (A) (A) (A) (A) (A) (A) (A) (A) (A) (A) (A)
                 (A) (A) (A) (A)
 The electronic state is 1-A.
 Alpha  occ. eigenvalues --  -10.51586  -7.03357  -0.78447  -0.56394  -0.47980
 Alpha  occ. eigenvalues --   -0.46211  -0.39015  -0.38317
 Alpha virt. eigenvalues --   -0.01308   0.06060   0.09757   0.10533   0.12987
 Alpha virt. eigenvalues --    0.15736   0.17990   0.19808   0.22370   0.23107
 Alpha virt. eigenvalues --    0.23954   0.26690   0.31004   0.36448   0.43616
 Alpha virt. eigenvalues --    0.44913   0.45715   0.46492   0.47576   0.52377
 Alpha virt. eigenvalues --    0.52706   0.60230   0.67663   0.69422   0.72502
 Alpha virt. eigenvalues --    0.76530   0.81195   0.82704   0.83587   0.88789
 Alpha virt. eigenvalues --    0.89799   0.96000   0.97913   1.01162   1.01403
 Alpha virt. eigenvalues --    1.01972   1.14615   1.17609   1.23336   1.26630
 Alpha virt. eigenvalues --    1.28265   1.32048   1.34577   1.37887   1.46117
 Alpha virt. eigenvalues --    1.46824   1.50826   1.54905   1.57618   1.58650
 Alpha virt. eigenvalues --    1.76190   1.83937   1.88239   1.92803   1.96730
 Alpha virt. eigenvalues --    2.00193   2.05105   2.09952   2.14689   2.23627
 Alpha virt. eigenvalues --    2.24396   2.30582   2.39993   2.42147   2.48087
 Alpha virt. eigenvalues --    2.57863   2.59378   2.68198   2.83623   2.91770
 Alpha virt. eigenvalues --    2.96416   2.97596   3.04631   3.08077   3.13786
 Alpha virt. eigenvalues --    3.18115   3.27112   3.29338   3.29966   3.38471
 Alpha virt. eigenvalues --    3.40699   3.42513   3.44598   3.51320   3.60937
 Alpha virt. eigenvalues --    3.62598   3.65141   3.71288   3.73622   3.79026
 Alpha virt. eigenvalues --    3.85277   3.87435   3.90036   3.95370   3.95479
 Alpha virt. eigenvalues --    3.98282   4.01315   4.05870   4.10847   4.12300
 Alpha virt. eigenvalues --    4.15609   4.19908   4.27981   4.40640   4.42692
 Alpha virt. eigenvalues --    4.49281   4.59174   4.62681   4.63604   4.84227
 Alpha virt. eigenvalues --    4.85349   4.94542   4.99576   5.04048   5.09698
 Alpha virt. eigenvalues --    5.13352   5.16980   5.18998   5.22651   5.38508
 Alpha virt. eigenvalues --    5.45073   5.51592  15.60369  23.44473
          Condensed to atoms (all electrons):
               1          2          3          4          5          6
     1  B    3.936289   0.367838   0.432263   0.435074  -0.040756  -0.021032
     2  C    0.367838   4.881811  -0.027135  -0.034966   0.409306   0.376167
     3  H    0.432263  -0.027135   0.566692  -0.018727   0.003453   0.000620
     4  H    0.435074  -0.034966  -0.018727   0.568722  -0.006765   0.003495
     5  H   -0.040756   0.409306   0.003453  -0.006765   0.568935  -0.016947
     6  H   -0.021032   0.376167   0.000620   0.003495  -0.016947   0.553803
     7  H   -0.034520   0.394133  -0.002683   0.004417  -0.026046  -0.013065
               7
     1  B   -0.034520
     2  C    0.394133
     3  H   -0.002683
     4  H    0.004417
     5  H   -0.026046
     6  H   -0.013065
     7  H    0.555503
 Mulliken charges:
               1
     1  B   -0.075155
     2  C   -0.367153
     3  H    0.045517
     4  H    0.048750
     5  H    0.108820
     6  H    0.116961
     7  H    0.122261
 Sum of Mulliken charges =  -0.00000
 Mulliken charges with hydrogens summed into heavy atoms:
               1
     1  B    0.019112
     2  C   -0.019112
 Electronic spatial extent (au):  <R**2>=            104.2687
 Charge=             -0.0000 electrons
 Dipole moment (field-independent basis, Debye):
    X=             -0.3682    Y=             -0.1315    Z=              0.0081  Tot=              0.3910
 Quadrupole moment (field-independent basis, Debye-Ang):
   XX=            -16.4932   YY=            -15.4727   ZZ=            -13.6589
   XY=              0.0371   XZ=             -0.0639   YZ=             -0.2368
 Traceless Quadrupole moment (field-independent basis, Debye-Ang):
   XX=             -1.2849   YY=             -0.2645   ZZ=              1.5494
   XY=              0.0371   XZ=             -0.0639   YZ=             -0.2368
 Octapole moment (field-independent basis, Debye-Ang**2):
  XXX=             -5.2528  YYY=              0.3267  ZZZ=              0.3778  XYY=             -2.9542
  XXY=             -0.2371  XXZ=             -0.1203  XZZ=             -0.7753  YZZ=             -0.6518
  YYZ=             -0.3216  XYZ=              0.0389
 Hexadecapole moment (field-independent basis, Debye-Ang**3):
 XXXX=           -109.4594 YYYY=            -37.4054 ZZZZ=            -21.8235 XXXY=             -0.1740
 XXXZ=              0.0487 YYYX=             -0.6059 YYYZ=             -0.2322 ZZZX=             -0.5846
 ZZZY=             -0.3876 XXYY=            -23.7823 XXZZ=            -19.5343 YYZZ=             -9.9855
 XXYZ=             -0.2965 YYXZ=              0.4437 ZZXY=              0.8160
 N-N= 3.180057171980D+01 E-N=-2.152971063915D+02  KE= 6.554809994131D+01
 1\1\GINC-NODE85\SP\RM062X\def2TZVPP\C1H5B1\YANZ\22-Sep-2023\0\\# M062X
 /def2TZVPP\\tmpdir/M2_ref_6.gjf\\0,1\B,0,-0.17753149,-0.02579991,-0.24
 407203\C,0,0.34765889,-1.4163715,0.28738069\H,0,-0.97643508,0.58149522
 ,0.28373191\H,0,0.23574877,0.36661949,-1.21842394\H,0,1.31184212,-1.74
 474857,-0.23898021\H,0,-0.48403329,-2.13238119,0.17629062\H,0,0.523937
 33,-1.35095828,1.36634202\\Version=ES64L-G16RevA.03\State=1-A\HF=-65.9
 165245\RMSD=8.938e-09\Dipole=0.0135816,-0.12618,0.0869703\Quadrupole=0
 .4678274,-0.4411021,-0.0267253,0.7529742,0.3722089,0.5104562\PG=C01 [X
 (C1H5B1)]\\@


 A MUSTACHE HAIR ACROSS A CHIP IS LIKE A REDWOOD
 TREE FALLING THROUGH A HOUSING PROJECT.
 - AN IBM MANAGER IN EAST FISHKILL, NEW YORK
   AS QUOTED IN "FROM SANDS TO CIRCUITS", IBM INNOVATION JANUARY 1985.
 Job cpu time:       0 days  0 hours  0 minutes 46.9 seconds.
 Elapsed time:       0 days  0 hours  0 minutes  8.5 seconds.
 File lengths (MBytes):  RWF=     10 Int=      0 D2E=      0 Chk=      2 Scr=      1
 Normal termination of Gaussian 16 at Fri Sep 22 16:47:30 2023.
