 Entering Gaussian System, Link 0=g16
 Initial command:
 /share/apps/gaussian/g16/l1.exe "/tmp/103468.mgr/Gau-283921.inp" -scrdir="/tmp/103468.mgr/"
 Entering Link 1 = /share/apps/gaussian/g16/l1.exe PID=    283924.
  
 Copyright (c) 1988,1990,1992,1993,1995,1998,2003,2009,2016,
            Gaussian, Inc.  All Rights Reserved.
  
 This is part of the Gaussian(R) 16 program.  It is based on
 the Gaussian(R) 09 system (copyright 2009, Gaussian, Inc.),
 the Gaussian(R) 03 system (copyright 2003, Gaussian, Inc.),
 the Gaussian(R) 98 system (copyright 1998, Gaussian, Inc.),
 the Gaussian(R) 94 system (copyright 1995, Gaussian, Inc.),
 the Gaussian 92(TM) system (copyright 1992, Gaussian, Inc.),
 the Gaussian 90(TM) system (copyright 1990, Gaussian, Inc.),
 the Gaussian 88(TM) system (copyright 1988, Gaussian, Inc.),
 the Gaussian 86(TM) system (copyright 1986, Carnegie Mellon
 University), and the Gaussian 82(TM) system (copyright 1983,
 Carnegie Mellon University). Gaussian is a federally registered
 trademark of Gaussian, Inc.
  
 This software contains proprietary and confidential information,
 including trade secrets, belonging to Gaussian, Inc.
  
 This software is provided under written license and may be
 used, copied, transmitted, or stored only in accord with that
 written license.
  
 The following legend is applicable only to US Government
 contracts under FAR:
  
                    RESTRICTED RIGHTS LEGEND
  
 Use, reproduction and disclosure by the US Government is
 subject to restrictions as set forth in subparagraphs (a)
 and (c) of the Commercial Computer Software - Restricted
 Rights clause in FAR 52.227-19.
  
 Gaussian, Inc.
 340 Quinnipiac St., Bldg. 40, Wallingford CT 06492
  
  
 ---------------------------------------------------------------
 Warning -- This program may not be used in any manner that
 competes with the business of Gaussian, Inc. or will provide
 assistance to any competitor of Gaussian, Inc.  The licensee
 of this program is prohibited from giving any competitor of
 Gaussian, Inc. access to this program.  By using this program,
 the user acknowledges that Gaussian, Inc. is engaged in the
 business of creating and licensing software in the field of
 computational chemistry and represents and warrants to the
 licensee that it is not a competitor of Gaussian, Inc. and that
 it will not use this program in any manner prohibited above.
 ---------------------------------------------------------------
  

 Cite this work as:
 Gaussian 16, Revision A.03,
 M. J. Frisch, G. W. Trucks, H. B. Schlegel, G. E. Scuseria, 
 M. A. Robb, J. R. Cheeseman, G. Scalmani, V. Barone, 
 G. A. Petersson, H. Nakatsuji, X. Li, M. Caricato, A. V. Marenich, 
 J. Bloino, B. G. Janesko, R. Gomperts, B. Mennucci, H. P. Hratchian, 
 J. V. Ortiz, A. F. Izmaylov, J. L. Sonnenberg, D. Williams-Young, 
 F. Ding, F. Lipparini, F. Egidi, J. Goings, B. Peng, A. Petrone, 
 T. Henderson, D. Ranasinghe, V. G. Zakrzewski, J. Gao, N. Rega, 
 G. Zheng, W. Liang, M. Hada, M. Ehara, K. Toyota, R. Fukuda, 
 J. Hasegawa, M. Ishida, T. Nakajima, Y. Honda, O. Kitao, H. Nakai, 
 T. Vreven, K. Throssell, J. A. Montgomery, Jr., J. E. Peralta, 
 F. Ogliaro, M. J. Bearpark, J. J. Heyd, E. N. Brothers, K. N. Kudin, 
 V. N. Staroverov, T. A. Keith, R. Kobayashi, J. Normand, 
 K. Raghavachari, A. P. Rendell, J. C. Burant, S. S. Iyengar, 
 J. Tomasi, M. Cossi, J. M. Millam, M. Klene, C. Adamo, R. Cammi, 
 J. W. Ochterski, R. L. Martin, K. Morokuma, O. Farkas, 
 J. B. Foresman, and D. J. Fox, Gaussian, Inc., Wallingford CT, 2016.
 
 ******************************************
 Gaussian 16:  ES64L-G16RevA.03 25-Dec-2016
                 3-Jul-2019 
 ******************************************
 %nprocshared=4
 Will use up to    4 processors via shared memory.
 %mem=4GB
 ----------------
 # b3lyp/6-31g(d)
 ----------------
 1/38=1,172=1/1;
 2/12=2,17=6,18=5,40=1/2;
 3/5=1,6=6,7=1,11=2,25=1,30=1,74=-5/1,2,3;
 4//1;
 5/5=2,38=5/2;
 6/7=2,8=2,9=2,10=2,28=1/1;
 99/5=1,9=1/99;
 ----------------------
 tmpdir/M1_conf_0_1.gjf
 ----------------------
 Symbolic Z-matrix:
 Charge =  0 Multiplicity = 1
 C                     1.20347   1.1851    0.12796 
 H                     1.55051   1.84112  -0.67978 
 H                     1.55048   1.64152   1.06362 
 C                     1.81357  -0.24322  -0.02606 
 H                     2.26159  -0.56203   0.92298 
 H                     2.61463  -0.2626   -0.77107 
 H                     0.12704   1.15364   0.09885 
 H                     0.99931  -0.95131  -0.30476 
 
                          Input orientation:                          
 ---------------------------------------------------------------------
 Center     Atomic      Atomic             Coordinates (Angstroms)
 Number     Number       Type             X           Y           Z
 ---------------------------------------------------------------------
      1          6           0        1.203469    1.185098    0.127962
      2          1           0        1.550511    1.841116   -0.679778
      3          1           0        1.550479    1.641516    1.063623
      4          6           0        1.813571   -0.243215   -0.026059
      5          1           0        2.261587   -0.562029    0.922976
      6          1           0        2.614626   -0.262604   -0.771066
      7          1           0        0.127042    1.153636    0.098849
      8          1           0        0.999311   -0.951313   -0.304764
 ---------------------------------------------------------------------
                    Distance matrix (angstroms):
                    1          2          3          4          5
     1  C    0.000000
     2  H    1.096924   0.000000
     3  H    1.097358   1.754790   0.000000
     4  C    1.560777   2.200224   2.192906   0.000000
     5  H    2.191829   2.974820   2.319713   1.096826   0.000000
     6  H    2.212568   2.359303   2.850292   1.094121   1.756152
     7  H    1.077280   1.762145   1.787453   2.193439   2.859890
     8  H    2.189334   2.870909   2.983124   1.114495   1.803394
                    6          7          8
     6  H    0.000000
     7  H    2.991749   0.000000
     8  H    1.816866   2.313994   0.000000
 Stoichiometry    C2H6
 Framework group  C1[X(C2H6)]
 Deg. of freedom    18
 Full point group                 C1      NOp   1
 Largest Abelian subgroup         C1      NOp   1
 Largest concise Abelian subgroup C1      NOp   1
                         Standard orientation:                         
 ---------------------------------------------------------------------
 Center     Atomic      Atomic             Coordinates (Angstroms)
 Number     Number       Type             X           Y           Z
 ---------------------------------------------------------------------
      1          6           0       -0.779610    0.005870   -0.003598
      2          1           0       -1.170484   -0.337724    0.962012
      3          1           0       -1.152188   -0.702470   -0.754355
      4          6           0        0.781140    0.001416    0.004342
      5          1           0        1.157374   -0.526231   -0.880568
      6          1           0        1.179598   -0.527274    0.875443
      7          1           0       -1.164946    0.994111   -0.191826
      8          1           0        1.141468    1.055874   -0.015168
 ---------------------------------------------------------------------
 Rotational constants (GHZ):          79.0989747          19.5388512          19.3935520
 Standard basis: 6-31G(d) (6D, 7F)
 There are    42 symmetry adapted cartesian basis functions of A   symmetry.
 There are    42 symmetry adapted basis functions of A   symmetry.
    42 basis functions,    80 primitive gaussians,    42 cartesian basis functions
     9 alpha electrons        9 beta electrons
       nuclear repulsion energy        41.8109910343 Hartrees.
 NAtoms=    8 NActive=    8 NUniq=    8 SFac= 1.00D+00 NAtFMM=   60 NAOKFM=F Big=F
 Integral buffers will be    131072 words long.
 Raffenetti 2 integral format.
 Two-electron integral symmetry is turned on.
 One-electron integrals computed using PRISM.
 NBasis=    42 RedAO= T EigKep=  8.47D-03  NBF=    42
 NBsUse=    42 1.00D-06 EigRej= -1.00D+00 NBFU=    42
 ExpMin= 1.61D-01 ExpMax= 3.05D+03 ExpMxC= 4.57D+02 IAcc=3 IRadAn=         5 AccDes= 0.00D+00
 Harris functional with IExCor=  402 and IRadAn=       5 diagonalized for initial guess.
 HarFok:  IExCor=  402 AccDes= 0.00D+00 IRadAn=         5 IDoV= 1 UseB2=F ITyADJ=14
 ICtDFT=  3500011 ScaDFX=  1.000000  1.000000  1.000000  1.000000
 FoFCou: FMM=F IPFlag=           0 FMFlag=      100000 FMFlg1=           0
         NFxFlg=           0 DoJE=T BraDBF=F KetDBF=T FulRan=T
         wScrn=  0.000000 ICntrl=       500 IOpCl=  0 I1Cent=   200000004 NGrid=           0
         NMat0=    1 NMatS0=      1 NMatT0=    0 NMatD0=    1 NMtDS0=    0 NMtDT0=    0
 Petite list used in FoFCou.
 Keep R1 ints in memory in canonical form, NReq=3861446.
 Requested convergence on RMS density matrix=1.00D-08 within 128 cycles.
 Requested convergence on MAX density matrix=1.00D-06.
 Requested convergence on             energy=1.00D-06.
 No special actions if energy rises.
 Integral accuracy reduced to 1.0D-05 until final iterations.
 Initial convergence to 1.0D-05 achieved.  Increase integral accuracy.
 SCF Done:  E(RB3LYP) =  -79.8247661288     A.U. after   11 cycles
            NFock= 11  Conv=0.55D-09     -V/T= 2.0111

 **********************************************************************

            Population analysis using the SCF density.

 **********************************************************************

 Orbital symmetries:
       Occupied  (A) (A) (A) (A) (A) (A) (A) (A) (A)
       Virtual   (A) (A) (A) (A) (A) (A) (A) (A) (A) (A) (A) (A)
                 (A) (A) (A) (A) (A) (A) (A) (A) (A) (A) (A) (A)
                 (A) (A) (A) (A) (A) (A) (A) (A) (A)
 The electronic state is 1-A.
 Alpha  occ. eigenvalues --  -10.17424 -10.17066  -0.74228  -0.61078  -0.43439
 Alpha  occ. eigenvalues --   -0.42635  -0.35446  -0.34299  -0.33635
 Alpha virt. eigenvalues --    0.10250   0.13536   0.13814   0.15663   0.23139
 Alpha virt. eigenvalues --    0.23318   0.23537   0.52030   0.53442   0.54139
 Alpha virt. eigenvalues --    0.65644   0.67110   0.68756   0.86130   0.86485
 Alpha virt. eigenvalues --    0.90066   0.91275   0.92622   0.97762   1.04157
 Alpha virt. eigenvalues --    1.46158   1.49393   1.49707   1.90754   2.04689
 Alpha virt. eigenvalues --    2.06343   2.14172   2.15790   2.38367   2.39511
 Alpha virt. eigenvalues --    2.57484   4.12799   4.38363
          Condensed to atoms (all electrons):
               1          2          3          4          5          6
     1  C    5.036058   0.384025   0.385361   0.352180  -0.035115  -0.032883
     2  H    0.384025   0.572507  -0.033201  -0.033895   0.003799  -0.009585
     3  H    0.385361  -0.033201   0.569755  -0.035065  -0.010128   0.002626
     4  C    0.352180  -0.033895  -0.035065   5.036170   0.384925   0.385015
     5  H   -0.035115   0.003799  -0.010128   0.384925   0.570545  -0.034353
     6  H   -0.032883  -0.009585   0.002626   0.385015  -0.034353   0.564688
     7  H    0.388999  -0.031612  -0.028737  -0.033579   0.002258   0.003426
     8  H   -0.036581   0.002441   0.003692   0.383758  -0.028948  -0.027513
               7          8
     1  C    0.388999  -0.036581
     2  H   -0.031612   0.002441
     3  H   -0.028737   0.003692
     4  C   -0.033579   0.383758
     5  H    0.002258  -0.028948
     6  H    0.003426  -0.027513
     7  H    0.556722  -0.009525
     8  H   -0.009525   0.569989
 Mulliken charges:
               1
     1  C   -0.442044
     2  H    0.145522
     3  H    0.145697
     4  C   -0.439508
     5  H    0.147018
     6  H    0.148579
     7  H    0.152048
     8  H    0.142688
 Sum of Mulliken charges =   0.00000
 Mulliken charges with hydrogens summed into heavy atoms:
               1
     1  C    0.001223
     4  C   -0.001223
 Electronic spatial extent (au):  <R**2>=            110.8368
 Charge=              0.0000 electrons
 Dipole moment (field-independent basis, Debye):
    X=             -0.0177    Y=             -0.0213    Z=              0.0001  Tot=              0.0277
 Quadrupole moment (field-independent basis, Debye-Ang):
   XX=            -15.4307   YY=            -14.4816   ZZ=            -14.7657
   XY=             -0.0863   XZ=             -0.0079   YZ=             -0.0159
 Traceless Quadrupole moment (field-independent basis, Debye-Ang):
   XX=             -0.5380   YY=              0.4110   ZZ=              0.1270
   XY=             -0.0863   XZ=             -0.0079   YZ=             -0.0159
 Octapole moment (field-independent basis, Debye-Ang**2):
  XXX=             -0.2034  YYY=              0.9074  ZZZ=              0.2627  XYY=             -0.0374
  XXY=             -0.1132  XXZ=              0.0748  XZZ=              0.0007  YZZ=             -0.9153
  YYZ=             -0.2883  XYZ=             -0.0420
 Hexadecapole moment (field-independent basis, Debye-Ang**3):
 XXXX=            -94.7824 YYYY=            -28.6343 ZZZZ=            -28.4254 XXXY=             -0.3985
 XXXZ=              0.0120 YYYX=             -0.0180 YYYZ=             -0.0133 ZZZX=             -0.3277
 ZZZY=             -0.0323 XXYY=            -19.3193 XXZZ=            -19.5171 YYZZ=             -9.4895
 XXYZ=             -0.0719 YYXZ=              0.3396 ZZXY=             -0.1906
 N-N= 4.181099103427D+01 E-N=-2.674220246230D+02  KE= 7.894685816449D+01
 1\1\GINC-NODE97\SP\RB3LYP\6-31G(d)\C2H6\YANZ\03-Jul-2019\0\\# b3lyp/6-
 31g(d)\\tmpdir/M1_conf_0_1.gjf\\0,1\C,0,1.203469,1.185098,0.127962\H,0
 ,1.550511,1.841116,-0.679778\H,0,1.550479,1.641516,1.063623\C,0,1.8135
 71,-0.243215,-0.026059\H,0,2.261587,-0.562029,0.922976\H,0,2.614626,-0
 .262604,-0.771066\H,0,0.12704183,1.15363574,0.09884948\H,0,0.99931073,
 -0.95131305,-0.3047638\\Version=ES64L-G16RevA.03\State=1-A\HF=-79.8247
 661\RMSD=5.470e-10\Dipole=0.0048636,0.0093792,0.0027294\Quadrupole=0.2
 397308,-0.3331192,0.0933883,0.2023076,0.0590083,-0.049543\PG=C01 [X(C2
 H6)]\\@


 LIFE IS SO UNCERTAIN - EAT DESSERT FIRST.
 Job cpu time:       0 days  0 hours  0 minutes  9.6 seconds.
 Elapsed time:       0 days  0 hours  0 minutes  2.5 seconds.
 File lengths (MBytes):  RWF=      6 Int=      0 D2E=      0 Chk=      1 Scr=      1
 Normal termination of Gaussian 16 at Wed Jul  3 14:23:03 2019.
