 Entering Gaussian System, Link 0=g16
 Initial command:
 /share/apps/gaussian/g16/l1.exe "/tmp/103468.mgr/Gau-283920.inp" -scrdir="/tmp/103468.mgr/"
 Entering Link 1 = /share/apps/gaussian/g16/l1.exe PID=    283926.
  
 Copyright (c) 1988,1990,1992,1993,1995,1998,2003,2009,2016,
            Gaussian, Inc.  All Rights Reserved.
  
 This is part of the Gaussian(R) 16 program.  It is based on
 the Gaussian(R) 09 system (copyright 2009, Gaussian, Inc.),
 the Gaussian(R) 03 system (copyright 2003, Gaussian, Inc.),
 the Gaussian(R) 98 system (copyright 1998, Gaussian, Inc.),
 the Gaussian(R) 94 system (copyright 1995, Gaussian, Inc.),
 the Gaussian 92(TM) system (copyright 1992, Gaussian, Inc.),
 the Gaussian 90(TM) system (copyright 1990, Gaussian, Inc.),
 the Gaussian 88(TM) system (copyright 1988, Gaussian, Inc.),
 the Gaussian 86(TM) system (copyright 1986, Carnegie Mellon
 University), and the Gaussian 82(TM) system (copyright 1983,
 Carnegie Mellon University). Gaussian is a federally registered
 trademark of Gaussian, Inc.
  
 This software contains proprietary and confidential information,
 including trade secrets, belonging to Gaussian, Inc.
  
 This software is provided under written license and may be
 used, copied, transmitted, or stored only in accord with that
 written license.
  
 The following legend is applicable only to US Government
 contracts under FAR:
  
                    RESTRICTED RIGHTS LEGEND
  
 Use, reproduction and disclosure by the US Government is
 subject to restrictions as set forth in subparagraphs (a)
 and (c) of the Commercial Computer Software - Restricted
 Rights clause in FAR 52.227-19.
  
 Gaussian, Inc.
 340 Quinnipiac St., Bldg. 40, Wallingford CT 06492
  
  
 ---------------------------------------------------------------
 Warning -- This program may not be used in any manner that
 competes with the business of Gaussian, Inc. or will provide
 assistance to any competitor of Gaussian, Inc.  The licensee
 of this program is prohibited from giving any competitor of
 Gaussian, Inc. access to this program.  By using this program,
 the user acknowledges that Gaussian, Inc. is engaged in the
 business of creating and licensing software in the field of
 computational chemistry and represents and warrants to the
 licensee that it is not a competitor of Gaussian, Inc. and that
 it will not use this program in any manner prohibited above.
 ---------------------------------------------------------------
  

 Cite this work as:
 Gaussian 16, Revision A.03,
 M. J. Frisch, G. W. Trucks, H. B. Schlegel, G. E. Scuseria, 
 M. A. Robb, J. R. Cheeseman, G. Scalmani, V. Barone, 
 G. A. Petersson, H. Nakatsuji, X. Li, M. Caricato, A. V. Marenich, 
 J. Bloino, B. G. Janesko, R. Gomperts, B. Mennucci, H. P. Hratchian, 
 J. V. Ortiz, A. F. Izmaylov, J. L. Sonnenberg, D. Williams-Young, 
 F. Ding, F. Lipparini, F. Egidi, J. Goings, B. Peng, A. Petrone, 
 T. Henderson, D. Ranasinghe, V. G. Zakrzewski, J. Gao, N. Rega, 
 G. Zheng, W. Liang, M. Hada, M. Ehara, K. Toyota, R. Fukuda, 
 J. Hasegawa, M. Ishida, T. Nakajima, Y. Honda, O. Kitao, H. Nakai, 
 T. Vreven, K. Throssell, J. A. Montgomery, Jr., J. E. Peralta, 
 F. Ogliaro, M. J. Bearpark, J. J. Heyd, E. N. Brothers, K. N. Kudin, 
 V. N. Staroverov, T. A. Keith, R. Kobayashi, J. Normand, 
 K. Raghavachari, A. P. Rendell, J. C. Burant, S. S. Iyengar, 
 J. Tomasi, M. Cossi, J. M. Millam, M. Klene, C. Adamo, R. Cammi, 
 J. W. Ochterski, R. L. Martin, K. Morokuma, O. Farkas, 
 J. B. Foresman, and D. J. Fox, Gaussian, Inc., Wallingford CT, 2016.
 
 ******************************************
 Gaussian 16:  ES64L-G16RevA.03 25-Dec-2016
                 3-Jul-2019 
 ******************************************
 %nprocshared=4
 Will use up to    4 processors via shared memory.
 %mem=4GB
 ----------------
 # b3lyp/6-31g(d)
 ----------------
 1/38=1,172=1/1;
 2/12=2,17=6,18=5,40=1/2;
 3/5=1,6=6,7=1,11=2,25=1,30=1,74=-5/1,2,3;
 4//1;
 5/5=2,38=5/2;
 6/7=2,8=2,9=2,10=2,28=1/1;
 99/5=1,9=1/99;
 ----------------------
 tmpdir/M1_conf_0_3.gjf
 ----------------------
 Symbolic Z-matrix:
 Charge =  0 Multiplicity = 1
 N                    -0.43866  -0.8251    0.4251 
 O                    -1.70377  -1.08579  -0.00145 
 H                    -2.01623  -0.05058  -0.15095 
 H                    -0.33598  -1.08623   1.40604 
 H                     0.35072  -1.10259  -0.16038 
 
                          Input orientation:                          
 ---------------------------------------------------------------------
 Center     Atomic      Atomic             Coordinates (Angstroms)
 Number     Number       Type             X           Y           Z
 ---------------------------------------------------------------------
      1          7           0       -0.438663   -0.825099    0.425095
      2          8           0       -1.703767   -1.085785   -0.001448
      3          1           0       -2.016233   -0.050577   -0.150948
      4          1           0       -0.335983   -1.086226    1.406036
      5          1           0        0.350722   -1.102588   -0.160379
 ---------------------------------------------------------------------
                    Distance matrix (angstroms):
                    1          2          3          4          5
     1  N    0.000000
     2  O    1.360288   0.000000
     3  H    1.849442   1.091623   0.000000
     4  H    1.020282   1.962612   2.513963   0.000000
     5  H    1.021229   2.060695   2.590230   1.710406   0.000000
 Stoichiometry    H3NO
 Framework group  C1[X(H3NO)]
 Deg. of freedom     9
 Full point group                 C1      NOp   1
 Largest Abelian subgroup         C1      NOp   1
 Largest concise Abelian subgroup C1      NOp   1
                         Standard orientation:                         
 ---------------------------------------------------------------------
 Center     Atomic      Atomic             Coordinates (Angstroms)
 Number     Number       Type             X           Y           Z
 ---------------------------------------------------------------------
      1          7           0       -0.633208   -0.014070    0.098354
      2          8           0        0.703275    0.014584   -0.153391
      3          1           0        1.041519   -0.133976    0.873820
      4          1           0       -1.044073    0.904403   -0.070681
      5          1           0       -1.191192   -0.788607   -0.264490
 ---------------------------------------------------------------------
 Rotational constants (GHZ):         185.7538173          27.3859827          27.0495483
 Standard basis: 6-31G(d) (6D, 7F)
 There are    36 symmetry adapted cartesian basis functions of A   symmetry.
 There are    36 symmetry adapted basis functions of A   symmetry.
    36 basis functions,    68 primitive gaussians,    36 cartesian basis functions
     9 alpha electrons        9 beta electrons
       nuclear repulsion energy        39.8594407642 Hartrees.
 NAtoms=    5 NActive=    5 NUniq=    5 SFac= 1.00D+00 NAtFMM=   60 NAOKFM=F Big=F
 Integral buffers will be    131072 words long.
 Raffenetti 2 integral format.
 Two-electron integral symmetry is turned on.
 One-electron integrals computed using PRISM.
 NBasis=    36 RedAO= T EigKep=  1.01D-02  NBF=    36
 NBsUse=    36 1.00D-06 EigRej= -1.00D+00 NBFU=    36
 ExpMin= 1.61D-01 ExpMax= 5.48D+03 ExpMxC= 8.25D+02 IAcc=3 IRadAn=         5 AccDes= 0.00D+00
 Harris functional with IExCor=  402 and IRadAn=       5 diagonalized for initial guess.
 HarFok:  IExCor=  402 AccDes= 0.00D+00 IRadAn=         5 IDoV= 1 UseB2=F ITyADJ=14
 ICtDFT=  3500011 ScaDFX=  1.000000  1.000000  1.000000  1.000000
 FoFCou: FMM=F IPFlag=           0 FMFlag=      100000 FMFlg1=           0
         NFxFlg=           0 DoJE=T BraDBF=F KetDBF=T FulRan=T
         wScrn=  0.000000 ICntrl=       500 IOpCl=  0 I1Cent=   200000004 NGrid=           0
         NMat0=    1 NMatS0=      1 NMatT0=    0 NMatD0=    1 NMtDS0=    0 NMtDT0=    0
 Petite list used in FoFCou.
 Keep R1 ints in memory in canonical form, NReq=3673432.
 Requested convergence on RMS density matrix=1.00D-08 within 128 cycles.
 Requested convergence on MAX density matrix=1.00D-06.
 Requested convergence on             energy=1.00D-06.
 No special actions if energy rises.
 Integral accuracy reduced to 1.0D-05 until final iterations.
 Initial convergence to 1.0D-05 achieved.  Increase integral accuracy.
 SCF Done:  E(RB3LYP) =  -131.680833685     A.U. after   12 cycles
            NFock= 12  Conv=0.22D-08     -V/T= 2.0089

 **********************************************************************

            Population analysis using the SCF density.

 **********************************************************************

 Orbital symmetries:
       Occupied  (A) (A) (A) (A) (A) (A) (A) (A) (A)
       Virtual   (A) (A) (A) (A) (A) (A) (A) (A) (A) (A) (A) (A)
                 (A) (A) (A) (A) (A) (A) (A) (A) (A) (A) (A) (A)
                 (A) (A) (A)
 The electronic state is 1-A.
 Alpha  occ. eigenvalues --  -19.17776 -14.34818  -1.05759  -0.76620  -0.50726
 Alpha  occ. eigenvalues --   -0.48979  -0.43366  -0.28133  -0.21467
 Alpha virt. eigenvalues --    0.05379   0.08882   0.16173   0.20581   0.63442
 Alpha virt. eigenvalues --    0.72349   0.74685   0.75783   0.80271   0.89772
 Alpha virt. eigenvalues --    0.92332   0.99044   1.00385   1.16476   1.34203
 Alpha virt. eigenvalues --    1.48631   1.53417   1.77385   2.04154   2.13637
 Alpha virt. eigenvalues --    2.22836   2.31796   2.44092   2.52070   2.77574
 Alpha virt. eigenvalues --    3.58435   3.72740
          Condensed to atoms (all electrons):
               1          2          3          4          5
     1  N    6.821796   0.137611  -0.081573   0.325963   0.314964
     2  O    0.137611   8.205767   0.226769  -0.044315  -0.035383
     3  H   -0.081573   0.226769   0.458357   0.005084   0.004299
     4  H    0.325963  -0.044315   0.005084   0.449335  -0.045352
     5  H    0.314964  -0.035383   0.004299  -0.045352   0.448610
 Mulliken charges:
               1
     1  N   -0.518762
     2  O   -0.490449
     3  H    0.387065
     4  H    0.309284
     5  H    0.312862
 Sum of Mulliken charges =   0.00000
 Mulliken charges with hydrogens summed into heavy atoms:
               1
     1  N    0.103384
     2  O   -0.103384
 Electronic spatial extent (au):  <R**2>=             71.5736
 Charge=              0.0000 electrons
 Dipole moment (field-independent basis, Debye):
    X=             -0.8734    Y=             -0.0641    Z=              0.6318  Tot=              1.0798
 Quadrupole moment (field-independent basis, Debye-Ang):
   XX=            -10.6680   YY=            -11.1057   ZZ=            -12.4735
   XY=             -0.2741   XZ=              2.9963   YZ=              0.0582
 Traceless Quadrupole moment (field-independent basis, Debye-Ang):
   XX=              0.7477   YY=              0.3101   ZZ=             -1.0578
   XY=             -0.2741   XZ=              2.9963   YZ=              0.0582
 Octapole moment (field-independent basis, Debye-Ang**2):
  XXX=             -0.3845  YYY=              0.3899  ZZZ=              0.4440  XYY=             -1.8864
  XXY=             -0.4533  XXZ=              0.7835  XZZ=              2.6594  YZZ=             -0.1710
  YYZ=             -0.3526  XYZ=             -0.5950
 Hexadecapole moment (field-independent basis, Debye-Ang**3):
 XXXX=            -46.0281 YYYY=            -12.9954 ZZZZ=            -13.8180 XXXY=              0.1828
 XXXZ=              3.7398 YYYX=             -0.3686 YYYZ=              0.1834 ZZZX=              2.7887
 ZZZY=             -0.1103 XXYY=             -9.0335 XXZZ=            -10.5498 YYZZ=             -4.8807
 XXYZ=              0.1730 YYXZ=              0.8447 ZZXY=             -0.1654
 N-N= 3.985944076415D+01 E-N=-3.894163273500D+02  KE= 1.305162368150D+02
 1\1\GINC-NODE97\SP\RB3LYP\6-31G(d)\H3N1O1\YANZ\03-Jul-2019\0\\# b3lyp/
 6-31g(d)\\tmpdir/M1_conf_0_3.gjf\\0,1\N,0,-0.438663,-0.825099,0.425095
 \O,0,-1.703767,-1.085785,-0.001448\H,0,-2.016233,-0.050577,-0.150948\H
 ,0,-0.335983,-1.086226,1.406036\H,0,0.35072168,-1.1025881,-0.16037924\
 \Version=ES64L-G16RevA.03\State=1-A\HF=-131.6808337\RMSD=2.167e-09\Dip
 ole=0.3238749,0.2517123,0.110577\Quadrupole=0.5611435,-0.8089159,0.247
 7724,-2.0910426,0.0848094,-0.7754353\PG=C01 [X(H3N1O1)]\\@


 Standing in the middle of the road is very dangerous;
 you get knocked down by the traffic from both sides.
                                -- Margaret Thatcher
 Job cpu time:       0 days  0 hours  0 minutes  7.1 seconds.
 Elapsed time:       0 days  0 hours  0 minutes  1.9 seconds.
 File lengths (MBytes):  RWF=      6 Int=      0 D2E=      0 Chk=      1 Scr=      1
 Normal termination of Gaussian 16 at Wed Jul  3 14:23:02 2019.
