This job is running on host node12
Current directory: /share/home/Liaoyt/system-test/bnts-ome/Ene-Me
Thu Feb 22 10:37:06 CST 2024
/tmp/85246.mgr/run
 Entering Gaussian System, Link 0=g16
 Initial command:
 /share/apps/gaussian/g16/l1.exe "/tmp/85246.mgr/run/Gau-168491.inp" -scrdir="/tmp/85246.mgr/run/"
 Entering Link 1 = /share/apps/gaussian/g16/l1.exe PID=    168492.
  
 Copyright (c) 1988,1990,1992,1993,1995,1998,2003,2009,2016,
            Gaussian, Inc.  All Rights Reserved.
  
 This is part of the Gaussian(R) 16 program.  It is based on
 the Gaussian(R) 09 system (copyright 2009, Gaussian, Inc.),
 the Gaussian(R) 03 system (copyright 2003, Gaussian, Inc.),
 the Gaussian(R) 98 system (copyright 1998, Gaussian, Inc.),
 the Gaussian(R) 94 system (copyright 1995, Gaussian, Inc.),
 the Gaussian 92(TM) system (copyright 1992, Gaussian, Inc.),
 the Gaussian 90(TM) system (copyright 1990, Gaussian, Inc.),
 the Gaussian 88(TM) system (copyright 1988, Gaussian, Inc.),
 the Gaussian 86(TM) system (copyright 1986, Carnegie Mellon
 University), and the Gaussian 82(TM) system (copyright 1983,
 Carnegie Mellon University). Gaussian is a federally registered
 trademark of Gaussian, Inc.
  
 This software contains proprietary and confidential information,
 including trade secrets, belonging to Gaussian, Inc.
  
 This software is provided under written license and may be
 used, copied, transmitted, or stored only in accord with that
 written license.
  
 The following legend is applicable only to US Government
 contracts under FAR:
  
                    RESTRICTED RIGHTS LEGEND
  
 Use, reproduction and disclosure by the US Government is
 subject to restrictions as set forth in subparagraphs (a)
 and (c) of the Commercial Computer Software - Restricted
 Rights clause in FAR 52.227-19.
  
 Gaussian, Inc.
 340 Quinnipiac St., Bldg. 40, Wallingford CT 06492
  
  
 ---------------------------------------------------------------
 Warning -- This program may not be used in any manner that
 competes with the business of Gaussian, Inc. or will provide
 assistance to any competitor of Gaussian, Inc.  The licensee
 of this program is prohibited from giving any competitor of
 Gaussian, Inc. access to this program.  By using this program,
 the user acknowledges that Gaussian, Inc. is engaged in the
 business of creating and licensing software in the field of
 computational chemistry and represents and warrants to the
 licensee that it is not a competitor of Gaussian, Inc. and that
 it will not use this program in any manner prohibited above.
 ---------------------------------------------------------------
  

 Cite this work as:
 Gaussian 16, Revision A.03,
 M. J. Frisch, G. W. Trucks, H. B. Schlegel, G. E. Scuseria, 
 M. A. Robb, J. R. Cheeseman, G. Scalmani, V. Barone, 
 G. A. Petersson, H. Nakatsuji, X. Li, M. Caricato, A. V. Marenich, 
 J. Bloino, B. G. Janesko, R. Gomperts, B. Mennucci, H. P. Hratchian, 
 J. V. Ortiz, A. F. Izmaylov, J. L. Sonnenberg, D. Williams-Young, 
 F. Ding, F. Lipparini, F. Egidi, J. Goings, B. Peng, A. Petrone, 
 T. Henderson, D. Ranasinghe, V. G. Zakrzewski, J. Gao, N. Rega, 
 G. Zheng, W. Liang, M. Hada, M. Ehara, K. Toyota, R. Fukuda, 
 J. Hasegawa, M. Ishida, T. Nakajima, Y. Honda, O. Kitao, H. Nakai, 
 T. Vreven, K. Throssell, J. A. Montgomery, Jr., J. E. Peralta, 
 F. Ogliaro, M. J. Bearpark, J. J. Heyd, E. N. Brothers, K. N. Kudin, 
 V. N. Staroverov, T. A. Keith, R. Kobayashi, J. Normand, 
 K. Raghavachari, A. P. Rendell, J. C. Burant, S. S. Iyengar, 
 J. Tomasi, M. Cossi, J. M. Millam, M. Klene, C. Adamo, R. Cammi, 
 J. W. Ochterski, R. L. Martin, K. Morokuma, O. Farkas, 
 J. B. Foresman, and D. J. Fox, Gaussian, Inc., Wallingford CT, 2016.
 
 ******************************************
 Gaussian 16:  ES64L-G16RevA.03 25-Dec-2016
                22-Feb-2024 
 ******************************************
 %chk=eneme.chk
 %nprocshared=16
 Will use up to   16 processors via shared memory.
 %mem=16GB
 --------------------------------------------
 #opt b3lyp/6-31g(d) geom=connectivity em=gd3
 --------------------------------------------
 1/18=20,19=15,26=3,38=1,57=2/1,3;
 2/9=110,12=2,17=6,18=5,40=1/2;
 3/5=1,6=6,7=1,11=2,25=1,30=1,71=1,74=-5,124=31/1,2,3;
 4//1;
 5/5=2,38=5/2;
 6/7=2,8=2,9=2,10=2,28=1/1;
 7//1,2,3,16;
 1/18=20,19=15,26=3/3(2);
 2/9=110/2;
 99//99;
 2/9=110/2;
 3/5=1,6=6,7=1,11=2,25=1,30=1,71=1,74=-5,124=31/1,2,3;
 4/5=5,16=3,69=1/1;
 5/5=2,38=5/2;
 7//1,2,3,16;
 1/18=20,19=15,26=3/3(-5);
 2/9=110/2;
 6/7=2,8=2,9=2,10=2,19=2,28=1/1;
 99/9=1/99;
 -----
 title
 -----
 Symbolic Z-matrix:
 Charge =  0 Multiplicity = 1
 C                     0.16758  -1.1646    0.15372 
 C                    -0.99264  -1.4966    0.05981 
 C                    -2.51393  -1.36453  -0.13975 
 H                    -2.95568  -2.33864  -0.16926 
 H                    -2.93306  -0.80726   0.67185 
 H                    -2.71005  -0.85592  -1.06048 
 C                     1.33628  -0.17682   0.32706 
 H                     1.20191   0.37959   1.23108 
 H                     2.2574   -0.71912   0.3756 
 H                     1.36156   0.49536  -0.50506 
 

 GradGradGradGradGradGradGradGradGradGradGradGradGradGradGradGradGradGrad
 Berny optimization.
 Initialization pass.
                           ----------------------------
                           !    Initial Parameters    !
                           ! (Angstroms and Degrees)  !
 --------------------------                            --------------------------
 ! Name  Definition              Value          Derivative Info.                !
 --------------------------------------------------------------------------------
 ! R1    R(1,2)                  1.2104         estimate D2E/DX2                !
 ! R2    R(1,7)                  1.54           estimate D2E/DX2                !
 ! R3    R(2,3)                  1.54           estimate D2E/DX2                !
 ! R4    R(3,4)                  1.07           estimate D2E/DX2                !
 ! R5    R(3,5)                  1.07           estimate D2E/DX2                !
 ! R6    R(3,6)                  1.07           estimate D2E/DX2                !
 ! R7    R(7,8)                  1.07           estimate D2E/DX2                !
 ! R8    R(7,9)                  1.07           estimate D2E/DX2                !
 ! R9    R(7,10)                 1.07           estimate D2E/DX2                !
 ! A1    A(2,1,7)              155.7937         estimate D2E/DX2                !
 ! A2    A(1,2,3)              158.971          estimate D2E/DX2                !
 ! A3    A(2,3,4)              109.4712         estimate D2E/DX2                !
 ! A4    A(2,3,5)              109.4712         estimate D2E/DX2                !
 ! A5    A(2,3,6)              109.4712         estimate D2E/DX2                !
 ! A6    A(4,3,5)              109.4713         estimate D2E/DX2                !
 ! A7    A(4,3,6)              109.4712         estimate D2E/DX2                !
 ! A8    A(5,3,6)              109.4712         estimate D2E/DX2                !
 ! A9    A(1,7,8)              109.4712         estimate D2E/DX2                !
 ! A10   A(1,7,9)              109.4712         estimate D2E/DX2                !
 ! A11   A(1,7,10)             109.4712         estimate D2E/DX2                !
 ! A12   A(8,7,9)              109.4713         estimate D2E/DX2                !
 ! A13   A(8,7,10)             109.4712         estimate D2E/DX2                !
 ! A14   A(9,7,10)             109.4712         estimate D2E/DX2                !
 ! D1    D(7,1,2,3)             15.0627         estimate D2E/DX2                !
 ! D2    D(2,1,7,8)             55.9913         estimate D2E/DX2                !
 ! D3    D(2,1,7,9)            175.9913         estimate D2E/DX2                !
 ! D4    D(2,1,7,10)           -64.0087         estimate D2E/DX2                !
 ! D5    D(1,2,3,4)            173.956          estimate D2E/DX2                !
 ! D6    D(1,2,3,5)            -66.0439         estimate D2E/DX2                !
 ! D7    D(1,2,3,6)             53.9561         estimate D2E/DX2                !
 --------------------------------------------------------------------------------
 Trust Radius=3.00D-01 FncErr=1.00D-07 GrdErr=1.00D-06 EigMax=2.50D+02 EigMin=1.00D-04
 Number of steps in this run=     40 maximum allowed number of steps=    100.
 GradGradGradGradGradGradGradGradGradGradGradGradGradGradGradGradGradGrad

                          Input orientation:                          
 ---------------------------------------------------------------------
 Center     Atomic      Atomic             Coordinates (Angstroms)
 Number     Number       Type             X           Y           Z
 ---------------------------------------------------------------------
      1          6           0        0.167584   -1.164596    0.153723
      2          6           0       -0.992636   -1.496604    0.059811
      3          6           0       -2.513929   -1.364528   -0.139748
      4          1           0       -2.955680   -2.338635   -0.169261
      5          1           0       -2.933063   -0.807265    0.671846
      6          1           0       -2.710046   -0.855917   -1.060482
      7          6           0        1.336284   -0.176823    0.327061
      8          1           0        1.201907    0.379593    1.231076
      9          1           0        2.257404   -0.719115    0.375604
     10          1           0        1.361559    0.495362   -0.505062
 ---------------------------------------------------------------------
                    Distance matrix (angstroms):
                    1          2          3          4          5
     1  C    0.000000
     2  C    1.210438   0.000000
     3  C    2.704923   1.540000   0.000000
     4  H    3.352233   2.148263   1.070000   0.000000
     5  H    3.163882   2.148263   1.070000   1.747303   0.000000
     6  H    3.138524   2.148263   1.070000   1.747303   1.747303
     7  C    1.540000   2.690188   4.056192   4.831224   4.329394
     8  H    2.148263   3.115766   4.327649   5.160934   4.338127
     9  H    2.148263   3.356632   4.842289   5.485979   5.199661
    10  H    2.148263   3.135163   4.314169   5.175216   4.639583
                    6          7          8          9         10
     6  H    0.000000
     7  C    4.331193   0.000000
     8  H    4.699053   1.070000   0.000000
     9  H    5.172680   1.070000   1.747303   0.000000
    10  H    4.325785   1.070000   1.747303   1.747303   0.000000
 Stoichiometry    C4H6
 Framework group  C1[X(C4H6)]
 Deg. of freedom    24
 Full point group                 C1      NOp   1
 Largest Abelian subgroup         C1      NOp   1
 Largest concise Abelian subgroup C1      NOp   1
                         Standard orientation:                         
 ---------------------------------------------------------------------
 Center     Atomic      Atomic             Coordinates (Angstroms)
 Number     Number       Type             X           Y           Z
 ---------------------------------------------------------------------
      1          6           0        0.608295   -0.390722   -0.021632
      2          6           0       -0.601128   -0.368242    0.022513
      3          6           0       -2.030053    0.205430   -0.003454
      4          1           0       -2.737173   -0.596857    0.031420
      5          1           0       -2.173370    0.844218    0.842897
      6          1           0       -2.172440    0.767520   -0.902721
      7          6           0        2.026131    0.209890    0.002971
      8          1           0        2.163500    0.763025    0.908550
      9          1           0        2.748219   -0.578163   -0.046640
     10          1           0        2.151794    0.862118   -0.835901
 ---------------------------------------------------------------------
 Rotational constants (GHZ):          46.5827728           3.4939439           3.3846207
 Standard basis: 6-31G(d) (6D, 7F)
 There are    72 symmetry adapted cartesian basis functions of A   symmetry.
 There are    72 symmetry adapted basis functions of A   symmetry.
    72 basis functions,   136 primitive gaussians,    72 cartesian basis functions
    15 alpha electrons       15 beta electrons
       nuclear repulsion energy        98.9543590513 Hartrees.
 NAtoms=   10 NActive=   10 NUniq=   10 SFac= 1.00D+00 NAtFMM=   60 NAOKFM=F Big=F
 Integral buffers will be    131072 words long.
 Raffenetti 2 integral format.
 Two-electron integral symmetry is turned on.
 Nuclear repulsion after empirical dispersion term =       98.9519324734 Hartrees.
 One-electron integrals computed using PRISM.
 NBasis=    72 RedAO= T EigKep=  8.14D-04  NBF=    72
 NBsUse=    72 1.00D-06 EigRej= -1.00D+00 NBFU=    72
 ExpMin= 1.61D-01 ExpMax= 3.05D+03 ExpMxC= 4.57D+02 IAcc=3 IRadAn=         5 AccDes= 0.00D+00
 Harris functional with IExCor=  402 and IRadAn=       5 diagonalized for initial guess.
 HarFok:  IExCor=  402 AccDes= 0.00D+00 IRadAn=         5 IDoV= 1 UseB2=F ITyADJ=14
 ICtDFT=  3500011 ScaDFX=  1.000000  1.000000  1.000000  1.000000
 FoFCou: FMM=F IPFlag=           0 FMFlag=      100000 FMFlg1=           0
         NFxFlg=           0 DoJE=T BraDBF=F KetDBF=T FulRan=T
         wScrn=  0.000000 ICntrl=       500 IOpCl=  0 I1Cent=   200000004 NGrid=           0
         NMat0=    1 NMatS0=      1 NMatT0=    0 NMatD0=    1 NMtDS0=    0 NMtDT0=    0
 Petite list used in FoFCou.
 Keep R1 ints in memory in canonical form, NReq=17794696.
 Requested convergence on RMS density matrix=1.00D-08 within 128 cycles.
 Requested convergence on MAX density matrix=1.00D-06.
 Requested convergence on             energy=1.00D-06.
 No special actions if energy rises.
 Integral accuracy reduced to 1.0D-05 until final iterations.
 Initial convergence to 1.0D-05 achieved.  Increase integral accuracy.
 SCF Done:  E(RB3LYP) =  -155.957146052     A.U. after   11 cycles
            NFock= 11  Conv=0.94D-08     -V/T= 2.0102

 **********************************************************************

            Population analysis using the SCF density.

 **********************************************************************

 Orbital symmetries:
       Occupied  (A) (A) (A) (A) (A) (A) (A) (A) (A) (A) (A) (A)
                 (A) (A) (A)
       Virtual   (A) (A) (A) (A) (A) (A) (A) (A) (A) (A) (A) (A)
                 (A) (A) (A) (A) (A) (A) (A) (A) (A) (A) (A) (A)
                 (A) (A) (A) (A) (A) (A) (A) (A) (A) (A) (A) (A)
                 (A) (A) (A) (A) (A) (A) (A) (A) (A) (A) (A) (A)
                 (A) (A) (A) (A) (A) (A) (A) (A) (A)
 The electronic state is 1-A.
 Alpha  occ. eigenvalues --  -10.19934 -10.19828 -10.17154 -10.16900  -0.76756
 Alpha  occ. eigenvalues --   -0.73139  -0.66269  -0.45974  -0.42960  -0.42930
 Alpha  occ. eigenvalues --   -0.42045  -0.41857  -0.40711  -0.24291  -0.24214
 Alpha virt. eigenvalues --    0.02725   0.07301   0.11863   0.13300   0.17334
 Alpha virt. eigenvalues --    0.17475   0.17631   0.21182   0.23304   0.24193
 Alpha virt. eigenvalues --    0.43842   0.45261   0.52646   0.52759   0.59808
 Alpha virt. eigenvalues --    0.60176   0.63109   0.65139   0.65897   0.76312
 Alpha virt. eigenvalues --    0.79130   0.80715   0.82843   0.88226   0.89761
 Alpha virt. eigenvalues --    0.90977   0.92169   0.93086   0.97532   1.02124
 Alpha virt. eigenvalues --    1.27554   1.30071   1.38973   1.51139   1.56187
 Alpha virt. eigenvalues --    1.57146   1.61407   1.63612   1.83344   1.86155
 Alpha virt. eigenvalues --    1.98028   2.03180   2.03943   2.10765   2.13424
 Alpha virt. eigenvalues --    2.25143   2.29542   2.29675   2.32437   2.63751
 Alpha virt. eigenvalues --    2.76449   2.82888   3.33239   4.06028   4.13410
 Alpha virt. eigenvalues --    4.41665   4.63780
          Condensed to atoms (all electrons):
               1          2          3          4          5          6
     1  C    4.931053   0.895353  -0.058754   0.003294  -0.003276  -0.002443
     2  C    0.895353   4.856379   0.383451  -0.026983  -0.029525  -0.028478
     3  C   -0.058754   0.383451   5.062593   0.362814   0.379783   0.378133
     4  H    0.003294  -0.026983   0.362814   0.549906  -0.031204  -0.031332
     5  H   -0.003276  -0.029525   0.379783  -0.031204   0.532885  -0.031146
     6  H   -0.002443  -0.028478   0.378133  -0.031332  -0.031146   0.531903
     7  C    0.379799  -0.043866   0.002228  -0.000023  -0.000026   0.000011
     8  H   -0.028460  -0.002752   0.000018  -0.000004   0.000095  -0.000017
     9  H   -0.029541   0.002499  -0.000033   0.000004  -0.000005  -0.000004
    10  H   -0.029313  -0.003767  -0.000017  -0.000005  -0.000013   0.000098
               7          8          9         10
     1  C    0.379799  -0.028460  -0.029541  -0.029313
     2  C   -0.043866  -0.002752   0.002499  -0.003767
     3  C    0.002228   0.000018  -0.000033  -0.000017
     4  H   -0.000023  -0.000004   0.000004  -0.000005
     5  H   -0.000026   0.000095  -0.000005  -0.000013
     6  H    0.000011  -0.000017  -0.000004   0.000098
     7  C    5.042399   0.378538   0.366097   0.380190
     8  H    0.378538   0.532649  -0.031654  -0.030946
     9  H    0.366097  -0.031654   0.552343  -0.031675
    10  H    0.380190  -0.030946  -0.031675   0.533601
 Mulliken charges:
               1
     1  C   -0.057714
     2  C   -0.002312
     3  C   -0.510217
     4  H    0.173533
     5  H    0.182431
     6  H    0.183274
     7  C   -0.505347
     8  H    0.182534
     9  H    0.171969
    10  H    0.181849
 Sum of Mulliken charges =   0.00000
 Mulliken charges with hydrogens summed into heavy atoms:
               1
     1  C   -0.057714
     2  C   -0.002312
     3  C    0.029021
     7  C    0.031004
 Electronic spatial extent (au):  <R**2>=            395.2474
 Charge=              0.0000 electrons
 Dipole moment (field-independent basis, Debye):
    X=             -0.0520    Y=              1.0999    Z=              0.0001  Tot=              1.1011
 Quadrupole moment (field-independent basis, Debye-Ang):
   XX=            -19.2274   YY=            -25.3736   ZZ=            -25.1028
   XY=              0.0320   XZ=              0.0222   YZ=             -0.0005
 Traceless Quadrupole moment (field-independent basis, Debye-Ang):
   XX=              4.0072   YY=             -2.1390   ZZ=             -1.8682
   XY=              0.0320   XZ=              0.0222   YZ=             -0.0005
 Octapole moment (field-independent basis, Debye-Ang**2):
  XXX=             -0.2531  YYY=              2.8784  ZZZ=              0.0202  XYY=             -0.0723
  XXY=              0.6144  XXZ=              0.0047  XZZ=             -0.0349  YZZ=              2.4052
  YYZ=             -0.0206  XYZ=             -0.0063
 Hexadecapole moment (field-independent basis, Debye-Ang**3):
 XXXX=           -426.8620 YYYY=            -53.3361 ZZZZ=            -37.7608 XXXY=              0.0715
 XXXZ=             -0.1407 YYYX=              0.1297 YYYZ=             -0.0274 ZZZX=              0.5351
 ZZZY=              0.0082 XXYY=            -78.0128 XXZZ=            -77.5990 YYZZ=            -14.1240
 XXYZ=              0.0433 YYXZ=             -0.3049 ZZXY=             -0.0096
 N-N= 9.895193247335D+01 E-N=-5.584010841213D+02  KE= 1.543812962956D+02
 Calling FoFJK, ICntrl=      2127 FMM=F ISym2X=0 I1Cent= 0 IOpClX= 0 NMat=1 NMatS=1 NMatT=0.
 ***** Axes restored to original set *****
 -------------------------------------------------------------------
 Center     Atomic                   Forces (Hartrees/Bohr)
 Number     Number              X              Y              Z
 -------------------------------------------------------------------
      1        6           0.019067480    0.036966651    0.005647390
      2        6          -0.037762738    0.016976951   -0.007115656
      3        6           0.052464796   -0.021670004    0.007216209
      4        1          -0.012396893   -0.013841474   -0.001070784
      5        1          -0.005958265    0.008294897    0.013385195
      6        1          -0.002357155    0.007582437   -0.014763850
      7        6          -0.028780674   -0.048054407   -0.005406436
      8        1          -0.002502956    0.007952067    0.014498397
      9        1           0.018223363   -0.003916209    0.001304150
     10        1           0.000003041    0.009709092   -0.013694614
 -------------------------------------------------------------------
 Cartesian Forces:  Max     0.052464796 RMS     0.019823737

 GradGradGradGradGradGradGradGradGradGradGradGradGradGradGradGradGradGrad
 Berny optimization.
 FormGI is forming the generalized inverse of G from B-inverse, IUseBI=4.
 Internal  Forces:  Max     0.038614700 RMS     0.015309588
 Search for a local minimum.
 Step number   1 out of a maximum of   40
 All quantities printed in internal units (Hartrees-Bohrs-Radians)
 Mixed Optimization -- RFO/linear search
 Second derivative matrix not updated -- first step.
 ITU=  0
     Eigenvalues ---    0.00237   0.00237   0.04596   0.09937   0.09937
     Eigenvalues ---    0.09937   0.09937   0.16000   0.16000   0.16000
     Eigenvalues ---    0.16000   0.16000   0.16000   0.25000   0.25000
     Eigenvalues ---    0.28519   0.28519   0.37230   0.37230   0.37230
     Eigenvalues ---    0.37230   0.37230   0.37230   0.99749
 RFO step:  Lambda=-2.31961666D-02 EMin= 2.36824184D-03
 Linear search not attempted -- first point.
 Iteration  1 RMS(Cart)=  0.12901276 RMS(Int)=  0.00862314
 Iteration  2 RMS(Cart)=  0.01670139 RMS(Int)=  0.00009396
 Iteration  3 RMS(Cart)=  0.00002983 RMS(Int)=  0.00008735
 Iteration  4 RMS(Cart)=  0.00000001 RMS(Int)=  0.00008735
 Variable       Old X    -DE/DX   Delta X   Delta X   Delta X     New X
                                 (Linear)    (Quad)   (Total)
    R1        2.28740   0.00667   0.00000   0.00654   0.00654   2.29393
    R2        2.91018  -0.03229   0.00000  -0.10470  -0.10470   2.80548
    R3        2.91018  -0.03367   0.00000  -0.10918  -0.10918   2.80100
    R4        2.02201   0.01775   0.00000   0.04488   0.04488   2.06688
    R5        2.02201   0.01681   0.00000   0.04249   0.04249   2.06450
    R6        2.02201   0.01674   0.00000   0.04233   0.04233   2.06433
    R7        2.02201   0.01670   0.00000   0.04222   0.04222   2.06423
    R8        2.02201   0.01773   0.00000   0.04483   0.04483   2.06684
    R9        2.02201   0.01675   0.00000   0.04235   0.04235   2.06436
    A1        2.71911   0.03861   0.00000   0.14134   0.14134   2.86046
    A2        2.77457   0.03660   0.00000   0.13396   0.13396   2.90853
    A3        1.91063   0.00902   0.00000   0.05138   0.05136   1.96199
    A4        1.91063  -0.00254   0.00000  -0.01510  -0.01519   1.89545
    A5        1.91063  -0.00235   0.00000  -0.01372  -0.01383   1.89681
    A6        1.91063  -0.00239   0.00000  -0.01124  -0.01124   1.89940
    A7        1.91063  -0.00222   0.00000  -0.00967  -0.00971   1.90092
    A8        1.91063   0.00048   0.00000  -0.00165  -0.00183   1.90880
    A9        1.91063  -0.00247   0.00000  -0.01447  -0.01460   1.89604
   A10        1.91063   0.00954   0.00000   0.05442   0.05440   1.96503
   A11        1.91063  -0.00287   0.00000  -0.01696  -0.01706   1.89357
   A12        1.91063  -0.00232   0.00000  -0.01000  -0.01004   1.90059
   A13        1.91063   0.00052   0.00000  -0.00177  -0.00199   1.90864
   A14        1.91063  -0.00242   0.00000  -0.01121  -0.01120   1.89944
    D1        0.26289   0.00118   0.00000   0.01701   0.01701   0.27991
    D2        0.97723  -0.00137   0.00000  -0.01108  -0.01093   0.96630
    D3        3.07163   0.00013   0.00000   0.00113   0.00117   3.07280
    D4       -1.11716   0.00125   0.00000   0.01034   0.01015  -1.10701
    D5        3.03611   0.00011   0.00000   0.00095   0.00098   3.03708
    D6       -1.15268   0.00115   0.00000   0.00941   0.00925  -1.14343
    D7        0.94171  -0.00126   0.00000  -0.01026  -0.01013   0.93158
         Item               Value     Threshold  Converged?
 Maximum Force            0.038615     0.000450     NO 
 RMS     Force            0.015310     0.000300     NO 
 Maximum Displacement     0.341554     0.001800     NO 
 RMS     Displacement     0.123432     0.001200     NO 
 Predicted change in Energy=-1.252176D-02
 GradGradGradGradGradGradGradGradGradGradGradGradGradGradGradGradGradGrad

                          Input orientation:                          
 ---------------------------------------------------------------------
 Center     Atomic      Atomic             Coordinates (Angstroms)
 Number     Number       Type             X           Y           Z
 ---------------------------------------------------------------------
      1          6           0        0.110568   -0.983853    0.156151
      2          6           0       -1.050779   -1.319581    0.046123
      3          6           0       -2.519183   -1.392829   -0.142079
      4          1           0       -2.887076   -2.422763   -0.155328
      5          1           0       -3.002755   -0.856227    0.677522
      6          1           0       -2.774801   -0.913274   -1.089719
      7          6           0        1.357490   -0.197240    0.330661
      8          1           0        1.285445    0.369120    1.261928
      9          1           0        2.250314   -0.827891    0.367803
     10          1           0        1.450160    0.496011   -0.508492
 ---------------------------------------------------------------------
                    Distance matrix (angstroms):
                    1          2          3          4          5
     1  C    0.000000
     2  C    1.213897   0.000000
     3  C    2.678020   1.482226   0.000000
     4  H    3.339663   2.151645   1.093748   0.000000
     5  H    3.159256   2.103229   1.092487   1.777935   0.000000
     6  H    3.143649   2.104156   1.092399   1.778833   1.782795
     7  C    1.484597   2.672147   4.084300   4.817206   4.423383
     8  H    2.105615   3.128552   4.421639   5.216622   4.497962
     9  H    2.155837   3.352976   4.829827   5.404633   5.262268
    10  H    2.103866   3.139851   4.411083   5.239807   4.802460
                    6          7          8          9         10
     6  H    0.000000
     7  C    4.427868   0.000000
     8  H    4.864193   1.092343   0.000000
     9  H    5.232919   1.093725   1.778558   0.000000
    10  H    4.491570   1.092411   1.782588   1.777879   0.000000
 Stoichiometry    C4H6
 Framework group  C1[X(C4H6)]
 Deg. of freedom    24
 Full point group                 C1      NOp   1
 Largest Abelian subgroup         C1      NOp   1
 Largest concise Abelian subgroup C1      NOp   1
                         Standard orientation:                         
 ---------------------------------------------------------------------
 Center     Atomic      Atomic             Coordinates (Angstroms)
 Number     Number       Type             X           Y           Z
 ---------------------------------------------------------------------
      1          6           0        0.607923   -0.255662   -0.014473
      2          6           0       -0.605446   -0.235584    0.015195
      3          6           0       -2.042665    0.126474   -0.002374
      4          1           0       -2.694313   -0.750671    0.045126
      5          1           0       -2.251082    0.767500    0.857379
      6          1           0       -2.253998    0.675184   -0.923022
      7          6           0        2.041631    0.129354    0.001990
      8          1           0        2.245456    0.676776    0.925027
      9          1           0        2.709426   -0.735157   -0.051929
     10          1           0        2.235854    0.778875   -0.854609
 ---------------------------------------------------------------------
 Rotational constants (GHZ):          61.2319170           3.4334646           3.3911338
 Standard basis: 6-31G(d) (6D, 7F)
 There are    72 symmetry adapted cartesian basis functions of A   symmetry.
 There are    72 symmetry adapted basis functions of A   symmetry.
    72 basis functions,   136 primitive gaussians,    72 cartesian basis functions
    15 alpha electrons       15 beta electrons
       nuclear repulsion energy        99.5695232053 Hartrees.
 NAtoms=   10 NActive=   10 NUniq=   10 SFac= 1.00D+00 NAtFMM=   60 NAOKFM=F Big=F
 Integral buffers will be    131072 words long.
 Raffenetti 2 integral format.
 Two-electron integral symmetry is turned on.
 Nuclear repulsion after empirical dispersion term =       99.5671702575 Hartrees.
 One-electron integrals computed using PRISM.
 NBasis=    72 RedAO= T EigKep=  4.55D-04  NBF=    72
 NBsUse=    72 1.00D-06 EigRej= -1.00D+00 NBFU=    72
 Initial guess from the checkpoint file:  "eneme.chk"
 B after Tr=     0.000000    0.000000   -0.000000
         Rot=    0.999999    0.001641   -0.000175    0.000160 Ang=   0.19 deg.
 ExpMin= 1.61D-01 ExpMax= 3.05D+03 ExpMxC= 4.57D+02 IAcc=2 IRadAn=         4 AccDes= 0.00D+00
 Harris functional with IExCor=  402 and IRadAn=       4 diagonalized for initial guess.
 HarFok:  IExCor=  402 AccDes= 0.00D+00 IRadAn=         4 IDoV= 1 UseB2=F ITyADJ=14
 ICtDFT=  3500011 ScaDFX=  1.000000  1.000000  1.000000  1.000000
 FoFCou: FMM=F IPFlag=           0 FMFlag=      100000 FMFlg1=           0
         NFxFlg=           0 DoJE=T BraDBF=F KetDBF=T FulRan=T
         wScrn=  0.000000 ICntrl=       500 IOpCl=  0 I1Cent=   200000004 NGrid=           0
         NMat0=    1 NMatS0=      1 NMatT0=    0 NMatD0=    1 NMtDS0=    0 NMtDT0=    0
 Petite list used in FoFCou.
 Keep R1 ints in memory in canonical form, NReq=17794696.
 Requested convergence on RMS density matrix=1.00D-08 within 128 cycles.
 Requested convergence on MAX density matrix=1.00D-06.
 Requested convergence on             energy=1.00D-06.
 No special actions if energy rises.
 Integral accuracy reduced to 1.0D-05 until final iterations.
 Initial convergence to 1.0D-05 achieved.  Increase integral accuracy.
 SCF Done:  E(RB3LYP) =  -155.973509672     A.U. after   11 cycles
            NFock= 11  Conv=0.76D-08     -V/T= 2.0105
 Calling FoFJK, ICntrl=      2127 FMM=F ISym2X=0 I1Cent= 0 IOpClX= 0 NMat=1 NMatS=1 NMatT=0.
 ***** Axes restored to original set *****
 -------------------------------------------------------------------
 Center     Atomic                   Forces (Hartrees/Bohr)
 Number     Number              X              Y              Z
 -------------------------------------------------------------------
      1        6          -0.003113752    0.010704827    0.001922554
      2        6          -0.002410277    0.008108119   -0.002236726
      3        6           0.017990899   -0.007347505    0.002687050
      4        1          -0.002197350   -0.000813792   -0.000256936
      5        1          -0.003884747    0.000485056    0.000361440
      6        1          -0.003641075    0.000416401   -0.001351956
      7        6          -0.010376703   -0.017053430   -0.002226335
      8        1           0.002621897    0.002383957    0.001310238
      9        1           0.002166613    0.000560103    0.000239826
     10        1           0.002844494    0.002556263   -0.000449153
 -------------------------------------------------------------------
 Cartesian Forces:  Max     0.017990899 RMS     0.005953456

 GradGradGradGradGradGradGradGradGradGradGradGradGradGradGradGradGradGrad
 Berny optimization.
 Using GEDIIS/GDIIS optimizer.
 FormGI is forming the generalized inverse of G from B-inverse, IUseBI=4.
 Internal  Forces:  Max     0.026143920 RMS     0.007237723
 Search for a local minimum.
 Step number   2 out of a maximum of   40
 All quantities printed in internal units (Hartrees-Bohrs-Radians)
 Mixed Optimization -- RFO/linear search
 Update second derivatives using D2CorX and points    1    2
 DE= -1.64D-02 DEPred=-1.25D-02 R= 1.31D+00
 TightC=F SS=  1.41D+00  RLast= 2.82D-01 DXNew= 5.0454D-01 8.4707D-01
 Trust test= 1.31D+00 RLast= 2.82D-01 DXMaxT set to 5.05D-01
 ITU=  1  0
 Use linear search instead of GDIIS.
     Eigenvalues ---    0.00237   0.00237   0.04595   0.09614   0.09632
     Eigenvalues ---    0.10060   0.10130   0.12020   0.16000   0.16000
     Eigenvalues ---    0.16000   0.16000   0.16531   0.17733   0.25000
     Eigenvalues ---    0.28516   0.30060   0.37222   0.37230   0.37230
     Eigenvalues ---    0.37230   0.37230   0.41379   1.00799
 RFO step:  Lambda=-5.69627309D-03 EMin= 2.36824172D-03
 Quartic linear search produced a step of  0.58712.
 Iteration  1 RMS(Cart)=  0.17564244 RMS(Int)=  0.01594205
 Iteration  2 RMS(Cart)=  0.02939111 RMS(Int)=  0.00062061
 Iteration  3 RMS(Cart)=  0.00038314 RMS(Int)=  0.00030277
 Iteration  4 RMS(Cart)=  0.00000011 RMS(Int)=  0.00030277
 Variable       Old X    -DE/DX   Delta X   Delta X   Delta X     New X
                                 (Linear)    (Quad)   (Total)
    R1        2.29393  -0.00577   0.00384  -0.01140  -0.00756   2.28637
    R2        2.80548  -0.00856  -0.06147  -0.00318  -0.06465   2.74083
    R3        2.80100  -0.00801  -0.06410   0.00162  -0.06248   2.73852
    R4        2.06688   0.00151   0.02635  -0.01140   0.01495   2.08183
    R5        2.06450   0.00223   0.02495  -0.00745   0.01750   2.08200
    R6        2.06433   0.00221   0.02485  -0.00748   0.01737   2.08171
    R7        2.06423   0.00218   0.02479  -0.00755   0.01724   2.08147
    R8        2.06684   0.00145   0.02632  -0.01161   0.01471   2.08155
    R9        2.06436   0.00221   0.02486  -0.00748   0.01738   2.08174
    A1        2.86046   0.02614   0.08299   0.10142   0.18440   3.04486
    A2        2.90853   0.02430   0.07865   0.09317   0.17183   3.08036
    A3        1.96199   0.00100   0.03015  -0.01606   0.01380   1.97580
    A4        1.89545   0.00373  -0.00892   0.04339   0.03398   1.92943
    A5        1.89681   0.00369  -0.00812   0.04225   0.03363   1.93044
    A6        1.89940  -0.00271  -0.00660  -0.02152  -0.02838   1.87102
    A7        1.90092  -0.00271  -0.00570  -0.02249  -0.02847   1.87245
    A8        1.90880  -0.00313  -0.00108  -0.02616  -0.02791   1.88089
    A9        1.89604   0.00353  -0.00857   0.04107   0.03201   1.92805
   A10        1.96503   0.00091   0.03194  -0.01848   0.01319   1.97823
   A11        1.89357   0.00367  -0.01002   0.04374   0.03325   1.92682
   A12        1.90059  -0.00260  -0.00590  -0.02145  -0.02761   1.87298
   A13        1.90864  -0.00300  -0.00117  -0.02464  -0.02648   1.88217
   A14        1.89944  -0.00262  -0.00657  -0.02070  -0.02752   1.87192
    D1        0.27991   0.00053   0.00999   0.00275   0.01274   0.29265
    D2        0.96630   0.00026  -0.00642   0.00999   0.00390   0.97020
    D3        3.07280  -0.00001   0.00069  -0.00071  -0.00001   3.07279
    D4       -1.10701  -0.00024   0.00596  -0.00865  -0.00304  -1.11005
    D5        3.03708  -0.00000   0.00057   0.00003   0.00062   3.03770
    D6       -1.14343  -0.00023   0.00543  -0.00776  -0.00267  -1.14610
    D7        0.93158   0.00025  -0.00595   0.00979   0.00416   0.93574
         Item               Value     Threshold  Converged?
 Maximum Force            0.026144     0.000450     NO 
 RMS     Force            0.007238     0.000300     NO 
 Maximum Displacement     0.450739     0.001800     NO 
 RMS     Displacement     0.185710     0.001200     NO 
 Predicted change in Energy=-6.176412D-03
 GradGradGradGradGradGradGradGradGradGradGradGradGradGradGradGradGradGrad

                          Input orientation:                          
 ---------------------------------------------------------------------
 Center     Atomic      Atomic             Coordinates (Angstroms)
 Number     Number       Type             X           Y           Z
 ---------------------------------------------------------------------
      1          6           0        0.033308   -0.745333    0.160402
      2          6           0       -1.120289   -1.085370    0.028354
      3          6           0       -2.522489   -1.407663   -0.144973
      4          1           0       -2.723888   -2.490665   -0.131126
      5          1           0       -3.125663   -0.953802    0.657544
      6          1           0       -2.893945   -1.017951   -1.106042
      7          6           0        1.368701   -0.206660    0.334120
      8          1           0        1.439007    0.350608    1.281610
      9          1           0        2.152747   -0.980189    0.349803
     10          1           0        1.611895    0.488496   -0.485122
 ---------------------------------------------------------------------
                    Distance matrix (angstroms):
                    1          2          3          4          5
     1  C    0.000000
     2  C    1.209897   0.000000
     3  C    2.657825   1.449165   0.000000
     4  H    3.276172   2.138181   1.101656   0.000000
     5  H    3.204639   2.105876   1.101745   1.773520   0.000000
     6  H    3.201096   2.106479   1.101593   1.774335   1.779899
     7  C    1.450386   2.657198   4.100402   4.709822   4.567509
     8  H    2.105750   3.191031   4.562905   5.234344   4.788231
     9  H    2.140806   3.290465   4.720738   5.127806   5.287439
    10  H    2.104987   3.194611   4.561167   5.272545   5.082358
                    6          7          8          9         10
     6  H    0.000000
     7  C    4.571916   0.000000
     8  H    5.133061   1.101466   0.000000
     9  H    5.252620   1.101509   1.774460   0.000000
    10  H    4.791401   1.101609   1.780518   1.773882   0.000000
 Stoichiometry    C4H6
 Framework group  C1[X(C4H6)]
 Deg. of freedom    24
 Full point group                 C1      NOp   1
 Largest Abelian subgroup         C1      NOp   1
 Largest concise Abelian subgroup C1      NOp   1
                         Standard orientation:                         
 ---------------------------------------------------------------------
 Center     Atomic      Atomic             Coordinates (Angstroms)
 Number     Number       Type             X           Y           Z
 ---------------------------------------------------------------------
      1          6           0        0.605060   -0.083775   -0.003549
      2          6           0       -0.604713   -0.068887    0.005240
      3          6           0       -2.050064    0.035989   -0.001025
      4          1           0       -2.556378   -0.938675    0.084558
      5          1           0       -2.396302    0.657960    0.839876
      6          1           0       -2.400625    0.506143   -0.933531
      7          6           0        2.050338    0.037794    0.000276
      8          1           0        2.390466    0.561075    0.907863
      9          1           0        2.570084   -0.932822   -0.032729
     10          1           0        2.389033    0.619601   -0.871692
 ---------------------------------------------------------------------
 Rotational constants (GHZ):          77.4189753           3.3871403           3.3839889
 Standard basis: 6-31G(d) (6D, 7F)
 There are    72 symmetry adapted cartesian basis functions of A   symmetry.
 There are    72 symmetry adapted basis functions of A   symmetry.
    72 basis functions,   136 primitive gaussians,    72 cartesian basis functions
    15 alpha electrons       15 beta electrons
       nuclear repulsion energy       100.0567291947 Hartrees.
 NAtoms=   10 NActive=   10 NUniq=   10 SFac= 1.00D+00 NAtFMM=   60 NAOKFM=F Big=F
 Integral buffers will be    131072 words long.
 Raffenetti 2 integral format.
 Two-electron integral symmetry is turned on.
 Nuclear repulsion after empirical dispersion term =      100.0544605228 Hartrees.
 One-electron integrals computed using PRISM.
 NBasis=    72 RedAO= T EigKep=  2.55D-04  NBF=    72
 NBsUse=    72 1.00D-06 EigRej= -1.00D+00 NBFU=    72
 Initial guess from the checkpoint file:  "eneme.chk"
 B after Tr=     0.000000    0.000000   -0.000000
         Rot=    0.999900    0.014154   -0.000308    0.000101 Ang=   1.62 deg.
 ExpMin= 1.61D-01 ExpMax= 3.05D+03 ExpMxC= 4.57D+02 IAcc=2 IRadAn=         4 AccDes= 0.00D+00
 Harris functional with IExCor=  402 and IRadAn=       4 diagonalized for initial guess.
 HarFok:  IExCor=  402 AccDes= 0.00D+00 IRadAn=         4 IDoV= 1 UseB2=F ITyADJ=14
 ICtDFT=  3500011 ScaDFX=  1.000000  1.000000  1.000000  1.000000
 FoFCou: FMM=F IPFlag=           0 FMFlag=      100000 FMFlg1=           0
         NFxFlg=           0 DoJE=T BraDBF=F KetDBF=T FulRan=T
         wScrn=  0.000000 ICntrl=       500 IOpCl=  0 I1Cent=   200000004 NGrid=           0
         NMat0=    1 NMatS0=      1 NMatT0=    0 NMatD0=    1 NMtDS0=    0 NMtDT0=    0
 Petite list used in FoFCou.
 Keep R1 ints in memory in canonical form, NReq=17794696.
 Requested convergence on RMS density matrix=1.00D-08 within 128 cycles.
 Requested convergence on MAX density matrix=1.00D-06.
 Requested convergence on             energy=1.00D-06.
 No special actions if energy rises.
 Integral accuracy reduced to 1.0D-05 until final iterations.
 Initial convergence to 1.0D-05 achieved.  Increase integral accuracy.
 SCF Done:  E(RB3LYP) =  -155.980186274     A.U. after   12 cycles
            NFock= 12  Conv=0.66D-08     -V/T= 2.0102
 Calling FoFJK, ICntrl=      2127 FMM=F ISym2X=0 I1Cent= 0 IOpClX= 0 NMat=1 NMatS=1 NMatT=0.
 ***** Axes restored to original set *****
 -------------------------------------------------------------------
 Center     Atomic                   Forces (Hartrees/Bohr)
 Number     Number              X              Y              Z
 -------------------------------------------------------------------
      1        6          -0.008930930   -0.001477823   -0.000466235
      2        6           0.009217613    0.002115454    0.000618161
      3        6          -0.009717674   -0.002583014   -0.001027591
      4        1           0.001961363    0.002350084    0.000106296
      5        1           0.000304304   -0.001187383   -0.002523328
      6        1          -0.000368463   -0.001031617    0.002519521
      7        6           0.008911435    0.002758026    0.000858911
      8        1           0.001001484   -0.000669274   -0.002479606
      9        1          -0.002927592    0.000771055   -0.000181660
     10        1           0.000548459   -0.001045508    0.002575532
 -------------------------------------------------------------------
 Cartesian Forces:  Max     0.009717674 RMS     0.003703725

 GradGradGradGradGradGradGradGradGradGradGradGradGradGradGradGradGradGrad
 Berny optimization.
 Using GEDIIS/GDIIS optimizer.
 FormGI is forming the generalized inverse of G from B-inverse, IUseBI=4.
 Internal  Forces:  Max     0.008632240 RMS     0.003310627
 Search for a local minimum.
 Step number   3 out of a maximum of   40
 All quantities printed in internal units (Hartrees-Bohrs-Radians)
 Mixed Optimization -- RFO/linear search
 Update second derivatives using D2CorX and points    1    2    3
 DE= -6.68D-03 DEPred=-6.18D-03 R= 1.08D+00
 TightC=F SS=  1.41D+00  RLast= 2.88D-01 DXNew= 8.4853D-01 8.6390D-01
 Trust test= 1.08D+00 RLast= 2.88D-01 DXMaxT set to 8.49D-01
 ITU=  1  1  0
 Use linear search instead of GDIIS.
     Eigenvalues ---    0.00237   0.00237   0.04597   0.09378   0.09386
     Eigenvalues ---    0.09647   0.09707   0.10484   0.16000   0.16000
     Eigenvalues ---    0.16000   0.16001   0.16356   0.17794   0.25005
     Eigenvalues ---    0.28520   0.32506   0.37230   0.37230   0.37230
     Eigenvalues ---    0.37230   0.37231   0.46476   1.00767
 RFO step:  Lambda=-1.06963206D-03 EMin= 2.36824201D-03
 Quartic linear search produced a step of  0.17078.
 Iteration  1 RMS(Cart)=  0.06666300 RMS(Int)=  0.00246325
 Iteration  2 RMS(Cart)=  0.00398378 RMS(Int)=  0.00033560
 Iteration  3 RMS(Cart)=  0.00044359 RMS(Int)=  0.00007827
 Iteration  4 RMS(Cart)=  0.00001095 RMS(Int)=  0.00007794
 Iteration  5 RMS(Cart)=  0.00000001 RMS(Int)=  0.00007794
 Variable       Old X    -DE/DX   Delta X   Delta X   Delta X     New X
                                 (Linear)    (Quad)   (Total)
    R1        2.28637  -0.00120  -0.00129   0.00057  -0.00073   2.28565
    R2        2.74083   0.00770  -0.01104   0.02426   0.01322   2.75405
    R3        2.73852   0.00822  -0.01067   0.02535   0.01468   2.75321
    R4        2.08183  -0.00267   0.00255  -0.00371  -0.00116   2.08067
    R5        2.08200  -0.00249   0.00299  -0.00387  -0.00089   2.08111
    R6        2.08171  -0.00244   0.00297  -0.00372  -0.00075   2.08096
    R7        2.08147  -0.00241   0.00294  -0.00362  -0.00068   2.08079
    R8        2.08155  -0.00263   0.00251  -0.00357  -0.00106   2.08049
    R9        2.08174  -0.00245   0.00297  -0.00376  -0.00079   2.08095
    A1        3.04486   0.00863   0.03149   0.03205   0.06354   3.10841
    A2        3.08036   0.00696   0.02935   0.02539   0.05474   3.13510
    A3        1.97580  -0.00298   0.00236  -0.01665  -0.01431   1.96149
    A4        1.92943   0.00199   0.00580   0.00740   0.01310   1.94253
    A5        1.93044   0.00193   0.00574   0.00701   0.01265   1.94309
    A6        1.87102   0.00019  -0.00485   0.00296  -0.00190   1.86912
    A7        1.87245   0.00010  -0.00486   0.00214  -0.00274   1.86971
    A8        1.88089  -0.00129  -0.00477  -0.00263  -0.00757   1.87331
    A9        1.92805   0.00203   0.00547   0.00787   0.01324   1.94128
   A10        1.97823  -0.00307   0.00225  -0.01687  -0.01463   1.96360
   A11        1.92682   0.00219   0.00568   0.00868   0.01426   1.94108
   A12        1.87298   0.00006  -0.00472   0.00158  -0.00314   1.86984
   A13        1.88217  -0.00138  -0.00452  -0.00327  -0.00797   1.87419
   A14        1.87192   0.00009  -0.00470   0.00212  -0.00259   1.86933
    D1        0.29265   0.00004   0.00218   0.00070   0.00288   0.29553
    D2        0.97020   0.00051   0.00067   0.00233   0.00314   0.97334
    D3        3.07279  -0.00006  -0.00000  -0.00155  -0.00155   3.07124
    D4       -1.11005  -0.00046  -0.00052  -0.00412  -0.00478  -1.11483
    D5        3.03770  -0.00006   0.00011  -0.00214  -0.00204   3.03566
    D6       -1.14610  -0.00043  -0.00046  -0.00443  -0.00502  -1.15112
    D7        0.93574   0.00047   0.00071   0.00153   0.00237   0.93811
         Item               Value     Threshold  Converged?
 Maximum Force            0.008632     0.000450     NO 
 RMS     Force            0.003311     0.000300     NO 
 Maximum Displacement     0.157484     0.001800     NO 
 RMS     Displacement     0.069254     0.001200     NO 
 Predicted change in Energy=-7.201612D-04
 GradGradGradGradGradGradGradGradGradGradGradGradGradGradGradGradGradGrad

                          Input orientation:                          
 ---------------------------------------------------------------------
 Center     Atomic      Atomic             Coordinates (Angstroms)
 Number     Number       Type             X           Y           Z
 ---------------------------------------------------------------------
      1          6           0        0.006810   -0.661996    0.162434
      2          6           0       -1.144377   -1.005760    0.022733
      3          6           0       -2.533503   -1.410858   -0.147209
      4          1           0       -2.657184   -2.504677   -0.123602
      5          1           0       -3.171477   -0.995723    0.648695
      6          1           0       -2.938435   -1.059408   -1.109054
      7          6           0        1.378780   -0.202181    0.336280
      8          1           0        1.499498    0.342272    1.285720
      9          1           0        2.103341   -1.031066    0.343318
     10          1           0        1.675933    0.480869   -0.474746
 ---------------------------------------------------------------------
                    Distance matrix (angstroms):
                    1          2          3          4          5
     1  C    0.000000
     2  C    1.209513   0.000000
     3  C    2.666432   1.456934   0.000000
     4  H    3.251793   2.134655   1.101042   0.000000
     5  H    3.232542   2.121570   1.101277   1.771407   0.000000
     6  H    3.232504   2.121902   1.101196   1.771728   1.774273
     7  C    1.457380   2.666528   4.123181   4.669260   4.629487
     8  H    2.120954   3.225276   4.625133   5.231570   4.900412
     9  H    2.136440   3.263600   4.678160   5.005211   5.283768
    10  H    2.120875   3.226716   4.626582   5.273774   5.190358
                    6          7          8          9         10
     6  H    0.000000
     7  C    4.632729   0.000000
     8  H    5.234014   1.101108   0.000000
     9  H    5.246875   1.100949   1.771668   0.000000
    10  H    4.905833   1.101190   1.774705   1.771399   0.000000
 Stoichiometry    C4H6
 Framework group  C1[X(C4H6)]
 Deg. of freedom    24
 Full point group                 C1      NOp   1
 Largest Abelian subgroup         C1      NOp   1
 Largest concise Abelian subgroup C1      NOp   1
                         Standard orientation:                         
 ---------------------------------------------------------------------
 Center     Atomic      Atomic             Coordinates (Angstroms)
 Number     Number       Type             X           Y           Z
 ---------------------------------------------------------------------
      1          6           0        0.604725   -0.003802    0.025021
      2          6           0       -0.604736   -0.001110    0.014183
      3          6           0       -2.061495    0.001002   -0.008266
      4          1           0       -2.496416    0.015846    1.003127
      5          1           0       -2.452065    0.881857   -0.541521
      6          1           0       -2.455548   -0.892252   -0.517632
      7          6           0        2.061686    0.001404   -0.009537
      8          1           0        2.446940    0.939236   -0.439059
      9          1           0        2.507348   -0.103947    0.991650
     10          1           0        2.448659   -0.825704   -0.624975
 ---------------------------------------------------------------------
 Rotational constants (GHZ):          79.6637913           3.3517370           3.3516543
 Standard basis: 6-31G(d) (6D, 7F)
 There are    72 symmetry adapted cartesian basis functions of A   symmetry.
 There are    72 symmetry adapted basis functions of A   symmetry.
    72 basis functions,   136 primitive gaussians,    72 cartesian basis functions
    15 alpha electrons       15 beta electrons
       nuclear repulsion energy        99.7713389613 Hartrees.
 NAtoms=   10 NActive=   10 NUniq=   10 SFac= 1.00D+00 NAtFMM=   60 NAOKFM=F Big=F
 Integral buffers will be    131072 words long.
 Raffenetti 2 integral format.
 Two-electron integral symmetry is turned on.
 Nuclear repulsion after empirical dispersion term =       99.7690837524 Hartrees.
 One-electron integrals computed using PRISM.
 NBasis=    72 RedAO= T EigKep=  2.44D-04  NBF=    72
 NBsUse=    72 1.00D-06 EigRej= -1.00D+00 NBFU=    72
 Initial guess from the checkpoint file:  "eneme.chk"
 B after Tr=    -0.000000    0.000000    0.000000
         Rot=    0.732212    0.681076   -0.000037    0.000129 Ang=  85.86 deg.
 ExpMin= 1.61D-01 ExpMax= 3.05D+03 ExpMxC= 4.57D+02 IAcc=2 IRadAn=         4 AccDes= 0.00D+00
 Harris functional with IExCor=  402 and IRadAn=       4 diagonalized for initial guess.
 HarFok:  IExCor=  402 AccDes= 0.00D+00 IRadAn=         4 IDoV= 1 UseB2=F ITyADJ=14
 ICtDFT=  3500011 ScaDFX=  1.000000  1.000000  1.000000  1.000000
 FoFCou: FMM=F IPFlag=           0 FMFlag=      100000 FMFlg1=           0
         NFxFlg=           0 DoJE=T BraDBF=F KetDBF=T FulRan=T
         wScrn=  0.000000 ICntrl=       500 IOpCl=  0 I1Cent=   200000004 NGrid=           0
         NMat0=    1 NMatS0=      1 NMatT0=    0 NMatD0=    1 NMtDS0=    0 NMtDT0=    0
 Petite list used in FoFCou.
 Keep R1 ints in memory in canonical form, NReq=17794696.
 Requested convergence on RMS density matrix=1.00D-08 within 128 cycles.
 Requested convergence on MAX density matrix=1.00D-06.
 Requested convergence on             energy=1.00D-06.
 No special actions if energy rises.
 Integral accuracy reduced to 1.0D-05 until final iterations.
 Initial convergence to 1.0D-05 achieved.  Increase integral accuracy.
 SCF Done:  E(RB3LYP) =  -155.981062859     A.U. after   11 cycles
            NFock= 11  Conv=0.27D-08     -V/T= 2.0104
 Calling FoFJK, ICntrl=      2127 FMM=F ISym2X=0 I1Cent= 0 IOpClX= 0 NMat=1 NMatS=1 NMatT=0.
 ***** Axes restored to original set *****
 -------------------------------------------------------------------
 Center     Atomic                   Forces (Hartrees/Bohr)
 Number     Number              X              Y              Z
 -------------------------------------------------------------------
      1        6          -0.003085883   -0.000584416   -0.000202696
      2        6           0.003488046   -0.000075494    0.000364913
      3        6          -0.006154664   -0.001028866   -0.000740523
      4        1           0.001668689    0.002145669    0.000110714
      5        1           0.001366317   -0.000684413   -0.001756603
      6        1           0.000846493   -0.000557971    0.002052615
      7        6           0.005421463    0.002256914    0.000577177
      8        1          -0.000291981   -0.000963277   -0.002016663
      9        1          -0.002591839    0.000754861   -0.000176359
     10        1          -0.000666642   -0.001263007    0.001787424
 -------------------------------------------------------------------
 Cartesian Forces:  Max     0.006154664 RMS     0.002099304

 GradGradGradGradGradGradGradGradGradGradGradGradGradGradGradGradGradGrad
 Berny optimization.
 Using GEDIIS/GDIIS optimizer.
 FormGI is forming the generalized inverse of G from B-inverse, IUseBI=4.
 Internal  Forces:  Max     0.002412533 RMS     0.001431450
 Search for a local minimum.
 Step number   4 out of a maximum of   40
 All quantities printed in internal units (Hartrees-Bohrs-Radians)
 Mixed Optimization -- RFO/linear search
 Update second derivatives using D2CorX and points    2    3    4
 DE= -8.77D-04 DEPred=-7.20D-04 R= 1.22D+00
 TightC=F SS=  1.41D+00  RLast= 9.37D-02 DXNew= 1.4270D+00 2.8120D-01
 Trust test= 1.22D+00 RLast= 9.37D-02 DXMaxT set to 8.49D-01
 ITU=  1  1  1  0
 Use linear search instead of GDIIS.
     Eigenvalues ---    0.00237   0.00237   0.04597   0.08950   0.09429
     Eigenvalues ---    0.09437   0.09569   0.10258   0.16000   0.16000
     Eigenvalues ---    0.16000   0.16001   0.16667   0.17796   0.25024
     Eigenvalues ---    0.28520   0.32431   0.37230   0.37230   0.37230
     Eigenvalues ---    0.37230   0.37242   0.41155   1.00552
 RFO step:  Lambda=-1.47014860D-04 EMin= 2.36817798D-03
 Quartic linear search produced a step of  0.36168.
 New curvilinear step failed, DQL= 6.28D+00 SP=-9.35D-02.
 ITry= 1 IFail=1 DXMaxC= 0.00D+00 DCOld= 1.00D+10 DXMaxT= 8.49D-01 DXLimC= 3.00D+00 Rises=F
 New curvilinear step failed, DQL= 6.28D+00 SP=-9.25D-02.
 ITry= 2 IFail=1 DXMaxC= 0.00D+00 DCOld= 1.00D+10 DXMaxT= 8.49D-01 DXLimC= 3.00D+00 Rises=F
 New curvilinear step failed, DQL= 6.28D+00 SP=-9.12D-02.
 ITry= 3 IFail=1 DXMaxC= 0.00D+00 DCOld= 1.00D+10 DXMaxT= 8.49D-01 DXLimC= 3.00D+00 Rises=F
 New curvilinear step failed, DQL= 6.28D+00 SP=-8.96D-02.
 ITry= 4 IFail=1 DXMaxC= 0.00D+00 DCOld= 1.00D+10 DXMaxT= 8.49D-01 DXLimC= 3.00D+00 Rises=F
 New curvilinear step failed, DQL= 6.28D+00 SP=-8.75D-02.
 ITry= 5 IFail=1 DXMaxC= 0.00D+00 DCOld= 1.00D+10 DXMaxT= 8.49D-01 DXLimC= 3.00D+00 Rises=F
 New curvilinear step failed, DQL= 6.28D+00 SP=-8.49D-02.
 ITry= 6 IFail=1 DXMaxC= 0.00D+00 DCOld= 1.00D+10 DXMaxT= 8.49D-01 DXLimC= 3.00D+00 Rises=F
 New curvilinear step failed, DQL= 6.28D+00 SP=-8.18D-02.
 ITry= 7 IFail=1 DXMaxC= 0.00D+00 DCOld= 1.00D+10 DXMaxT= 8.49D-01 DXLimC= 3.00D+00 Rises=F
 New curvilinear step failed, DQL= 6.28D+00 SP=-7.82D-02.
 ITry= 8 IFail=1 DXMaxC= 0.00D+00 DCOld= 1.00D+10 DXMaxT= 8.49D-01 DXLimC= 3.00D+00 Rises=F
 New curvilinear step failed, DQL= 6.28D+00 SP=-7.39D-02.
 ITry= 9 IFail=1 DXMaxC= 0.00D+00 DCOld= 1.00D+10 DXMaxT= 8.49D-01 DXLimC= 3.00D+00 Rises=F
 New curvilinear step failed, DQL= 6.28D+00 SP=-6.90D-02.
 ITry=10 IFail=1 DXMaxC= 0.00D+00 DCOld= 1.00D+10 DXMaxT= 8.49D-01 DXLimC= 3.00D+00 Rises=F
 RedQX1 iteration     1 Try  1 RMS(Cart)=  0.00578285 RMS(Int)=  0.00654300 XScale=  4.99594064
 RedQX1 iteration     1 Try  2 RMS(Cart)=  0.00578265 RMS(Int)=  1.14702150 XScale=  0.00713224
 RedQX1 iteration     2 Try  1 RMS(Cart)=  0.00462612 RMS(Int)=  1.12461570 XScale=  0.00726894
 RedQX1 iteration     3 Try  1 RMS(Cart)=  0.00092522 RMS(Int)=  0.00628040 XScale=  4.30388729
 RedQX1 iteration     3 Try  2 RMS(Cart)=  0.00092521 RMS(Int)=  0.00601706 XScale=  3.77741214
 RedQX1 iteration     3 Try  3 RMS(Cart)=  0.00092520 RMS(Int)=  0.00575231 XScale=  3.35976628
 RedQX1 iteration     3 Try  4 RMS(Cart)=  0.00092518 RMS(Int)=  0.00548500 XScale=  3.00366076
 RedQX1 iteration     3 Try  5 RMS(Cart)=  0.00092515 RMS(Int)=  1.13624090 XScale=  0.00719461
 RedQX1 iteration     4 Try  1 RMS(Cart)=  0.00077713 RMS(Int)=  0.00544270 XScale=  2.30811646
 RedQX1 iteration     4 Try  2 RMS(Cart)=  0.00077703 RMS(Int)=  1.14684605 XScale=  0.00713652
 RedQX1 iteration     5 Try  1 RMS(Cart)=  0.00074595 RMS(Int)=  1.14685554 XScale=  0.00713646
 RedQX1 iteration     6 Try  1 RMS(Cart)=  0.00014919 RMS(Int)=  1.14245713 XScale=  0.00715549
 RedQX1 iteration     7 Try  1 RMS(Cart)=  0.00002984 RMS(Int)=  0.00551177 XScale=  2.19963977
 RedQX1 iteration     7 Try  2 RMS(Cart)=  0.00002984 RMS(Int)=  0.00565742 XScale=  2.03183370
 RedQX1 iteration     7 Try  3 RMS(Cart)=  0.00002984 RMS(Int)=  0.00608154 XScale=  1.71911279
 RedQX1 iteration     7 Try  4 RMS(Cart)=  0.00002983 RMS(Int)=  0.01085630 XScale=  0.77175064
 RedQX1 iteration     8 Try  1 RMS(Cart)=  0.00002969 RMS(Int)=  0.01072679 XScale=  0.78225254
 RedQX1 iteration     9 Try  1 RMS(Cart)=  0.00000594 RMS(Int)=  0.00624360 XScale=  1.63319696
 RedQX1 iteration     9 Try  2 RMS(Cart)=  0.00000594 RMS(Int)=  0.00647701 XScale=  1.52844124
 RedQX1 iteration     9 Try  3 RMS(Cart)=  0.00000594 RMS(Int)=  0.00684216 XScale=  1.39596913
 RedQX1 iteration     9 Try  4 RMS(Cart)=  0.00000594 RMS(Int)=  0.00749740 XScale=  1.21856377
 RedQX1 iteration     9 Try  5 RMS(Cart)=  0.00000594 RMS(Int)=  0.00905071 XScale=  0.95399305
 RedQX1 iteration    10 Try  1 RMS(Cart)=  0.00000593 RMS(Int)=  0.00904701 XScale=  0.95446828
 RedQX1 iteration    11 Try  1 RMS(Cart)=  0.00000119 RMS(Int)=  0.00767849 XScale=  1.17878757
 RedQX1 iteration    11 Try  2 RMS(Cart)=  0.00000119 RMS(Int)=  0.00789147 XScale=  1.13583177
 RedQX1 iteration    11 Try  3 RMS(Cart)=  0.00000119 RMS(Int)=  0.00814601 XScale=  1.08913892
 RedQX1 iteration    11 Try  4 RMS(Cart)=  0.00000119 RMS(Int)=  0.00845628 XScale=  1.03797660
 RedQX1 iteration    11 Try  5 RMS(Cart)=  0.00000119 RMS(Int)=  0.00884409 XScale=  0.98135001
 RedQX1 iteration    12 Try  1 RMS(Cart)=  0.00000119 RMS(Int)=  0.00884398 XScale=  0.98136585
 RedQX1 iteration    13 Try  1 RMS(Cart)=  0.00000024 RMS(Int)=  0.00852467 XScale=  1.02744237
 RedQX1 iteration    13 Try  2 RMS(Cart)=  0.00000024 RMS(Int)=  0.00859616 XScale=  1.01669409
 RedQX1 iteration    13 Try  3 RMS(Cart)=  0.00000024 RMS(Int)=  0.00867097 XScale=  1.00572234
 RedQX1 iteration    13 Try  4 RMS(Cart)=  0.00000024 RMS(Int)=  0.00874934 XScale=  0.99451701
 RedQX1 iteration    14 Try  1 RMS(Cart)=  0.00000024 RMS(Int)=  0.00874934 XScale=  0.99451745
 RedQX1 iteration    15 Try  1 RMS(Cart)=  0.00000005 RMS(Int)=  0.00868625 XScale=  1.00351457
 B after Tr=     0.000000    0.000000    0.000000
         Rot=    1.000000   -0.000000   -0.000000    0.000000 Ang=   0.00 deg.
 Variable       Old X    -DE/DX   Delta X   Delta X   Delta X     New X
                                 (Linear)    (Quad)   (Total)
    R1        2.28565  -0.00110  -0.00026  -0.00086  -0.00040   2.28525
    R2        2.75405   0.00203   0.00478  -0.00027   0.00170   2.75575
    R3        2.75321   0.00224   0.00531   0.00003   0.00199   2.75519
    R4        2.08067  -0.00232  -0.00042  -0.00528  -0.00188   2.07879
    R5        2.08111  -0.00232  -0.00032  -0.00551  -0.00206   2.07905
    R6        2.08096  -0.00228  -0.00027  -0.00543  -0.00202   2.07894
    R7        2.08079  -0.00225  -0.00024  -0.00533  -0.00197   2.07882
    R8        2.08049  -0.00228  -0.00038  -0.00516  -0.00180   2.07869
    R9        2.08095  -0.00228  -0.00029  -0.00541  -0.00200   2.07895
    A1        3.10841   0.00241   0.02298   0.00300   0.00933   3.11773
    A2        3.13510   0.00114   0.01980  -0.00171   0.00649   3.14159
    A3        1.96149  -0.00212  -0.00518  -0.01117  -0.00588   1.95561
    A4        1.94253   0.00032   0.00474  -0.00173   0.00110   1.94362
    A5        1.94309   0.00030   0.00457  -0.00177   0.00102   1.94410
    A6        1.86912   0.00081  -0.00069   0.00609   0.00195   1.87107
    A7        1.86971   0.00077  -0.00099   0.00581   0.00174   1.87145
    A8        1.87331   0.00004  -0.00274   0.00393   0.00038   1.87369
    A9        1.94128   0.00039   0.00479  -0.00123   0.00129   1.94257
   A10        1.96360  -0.00222  -0.00529  -0.01184  -0.00616   1.95743
   A11        1.94108   0.00044   0.00516  -0.00111   0.00147   1.94255
   A12        1.86984   0.00075  -0.00114   0.00570   0.00165   1.87149
   A13        1.87419  -0.00003  -0.00288   0.00369   0.00023   1.87442
   A14        1.86933   0.00078  -0.00094   0.00590   0.00180   1.87112
    D1        0.29553  -0.00001   0.00104   0.00007   0.02058   0.31610
    D2        0.97334   0.00027   0.00113   0.00033   0.00051   0.97384
    D3        3.07124  -0.00003  -0.00056  -0.00140  -0.00072   3.07053
    D4       -1.11483  -0.00025  -0.00173  -0.00277  -0.00163  -1.11646
    D5        3.03566  -0.00003  -0.00074  -0.00167  -0.02104   3.01463
    D6       -1.15112  -0.00022  -0.00182  -0.00278  -0.02182  -1.17294
    D7        0.93811   0.00024   0.00086  -0.00015  -0.01992   0.91819
         Item               Value     Threshold  Converged?
 Maximum Force            0.002413     0.000450     NO 
 RMS     Force            0.001431     0.000300     NO 
 Maximum Displacement     0.025607     0.001800     NO 
 RMS     Displacement     0.010380     0.001200     NO 
 Predicted change in Energy=-7.089276D-05
 GradGradGradGradGradGradGradGradGradGradGradGradGradGradGradGradGradGrad

                          Input orientation:                          
 ---------------------------------------------------------------------
 Center     Atomic      Atomic             Coordinates (Angstroms)
 Number     Number       Type             X           Y           Z
 ---------------------------------------------------------------------
      1          6           0        0.002885   -0.649933    0.162862
      2          6           0       -1.147597   -0.994896    0.022154
      3          6           0       -2.534669   -1.410792   -0.147490
      4          1           0       -2.643634   -2.505146   -0.122611
      5          1           0       -3.175775   -1.001778    0.647559
      6          1           0       -2.942653   -1.064533   -1.108706
      7          6           0        1.379464   -0.201102    0.336528
      8          1           0        1.506441    0.340687    1.285468
      9          1           0        2.091509   -1.039524    0.342253
     10          1           0        1.683412    0.478489   -0.473449
 ---------------------------------------------------------------------
                    Distance matrix (angstroms):
                    1          2          3          4          5
     1  C    0.000000
     2  C    1.209300   0.000000
     3  C    2.667284   1.457984   0.000000
     4  H    3.244591   2.130713   1.100048   0.000000
     5  H    3.234595   2.122424   1.100187   1.771003   0.000000
     6  H    3.234961   2.122716   1.100128   1.771203   1.772781
     7  C    1.458280   2.667392   4.125296   4.658835   4.635518
     8  H    2.121851   3.228570   4.631589   5.225378   4.912462
     9  H    2.132208   3.255190   4.666821   4.978527   5.276260
    10  H    2.121886   3.229721   4.633340   5.267684   5.201879
                    6          7          8          9         10
     6  H    0.000000
     7  C    4.638417   0.000000
     8  H    5.244154   1.100067   0.000000
     9  H    5.239151   1.099996   1.771141   0.000000
    10  H    4.917819   1.100132   1.773161   1.770954   0.000000
 Stoichiometry    C4H6
 Framework group  C1[X(C4H6)]
 Deg. of freedom    24
 Full point group                 C1      NOp   1
 Largest Abelian subgroup         C1      NOp   1
 Largest concise Abelian subgroup C1      NOp   1
                         Standard orientation:                         
 ---------------------------------------------------------------------
 Center     Atomic      Atomic             Coordinates (Angstroms)
 Number     Number       Type             X           Y           Z
 ---------------------------------------------------------------------
      1          6           0        0.604616   -0.002646    0.016706
      2          6           0       -0.604644   -0.001080    0.006981
      3          6           0       -2.062580    0.000806   -0.004751
      4          1           0       -2.483669    0.029781    1.011098
      5          1           0       -2.457852    0.873367   -0.545871
      6          1           0       -2.461008   -0.898739   -0.497046
      7          6           0        2.062716    0.001051   -0.005911
      8          1           0        2.453225    0.931210   -0.444606
      9          1           0        2.493417   -0.089627    1.002189
     10          1           0        2.455234   -0.834778   -0.603915
 ---------------------------------------------------------------------
 Rotational constants (GHZ):          79.8223741           3.3499637           3.3498518
 Standard basis: 6-31G(d) (6D, 7F)
 There are    72 symmetry adapted cartesian basis functions of A   symmetry.
 There are    72 symmetry adapted basis functions of A   symmetry.
    72 basis functions,   136 primitive gaussians,    72 cartesian basis functions
    15 alpha electrons       15 beta electrons
       nuclear repulsion energy        99.7709440861 Hartrees.
 NAtoms=   10 NActive=   10 NUniq=   10 SFac= 1.00D+00 NAtFMM=   60 NAOKFM=F Big=F
 Integral buffers will be    131072 words long.
 Raffenetti 2 integral format.
 Two-electron integral symmetry is turned on.
 Nuclear repulsion after empirical dispersion term =       99.7686896162 Hartrees.
 One-electron integrals computed using PRISM.
 NBasis=    72 RedAO= T EigKep=  2.43D-04  NBF=    72
 NBsUse=    72 1.00D-06 EigRej= -1.00D+00 NBFU=    72
 Initial guess from the checkpoint file:  "eneme.chk"
 B after Tr=     0.000000    0.000000   -0.000000
         Rot=    0.999974    0.007242    0.000021    0.000020 Ang=   0.83 deg.
 ExpMin= 1.61D-01 ExpMax= 3.05D+03 ExpMxC= 4.57D+02 IAcc=2 IRadAn=         4 AccDes= 0.00D+00
 Harris functional with IExCor=  402 and IRadAn=       4 diagonalized for initial guess.
 HarFok:  IExCor=  402 AccDes= 0.00D+00 IRadAn=         4 IDoV= 1 UseB2=F ITyADJ=14
 ICtDFT=  3500011 ScaDFX=  1.000000  1.000000  1.000000  1.000000
 FoFCou: FMM=F IPFlag=           0 FMFlag=      100000 FMFlg1=           0
         NFxFlg=           0 DoJE=T BraDBF=F KetDBF=T FulRan=T
         wScrn=  0.000000 ICntrl=       500 IOpCl=  0 I1Cent=   200000004 NGrid=           0
         NMat0=    1 NMatS0=      1 NMatT0=    0 NMatD0=    1 NMtDS0=    0 NMtDT0=    0
 Petite list used in FoFCou.
 Keep R1 ints in memory in canonical form, NReq=17794696.
 Requested convergence on RMS density matrix=1.00D-08 within 128 cycles.
 Requested convergence on MAX density matrix=1.00D-06.
 Requested convergence on             energy=1.00D-06.
 No special actions if energy rises.
 Integral accuracy reduced to 1.0D-05 until final iterations.
 Initial convergence to 1.0D-05 achieved.  Increase integral accuracy.
 SCF Done:  E(RB3LYP) =  -155.981146556     A.U. after    9 cycles
            NFock=  9  Conv=0.18D-08     -V/T= 2.0103
 Calling FoFJK, ICntrl=      2127 FMM=F ISym2X=0 I1Cent= 0 IOpClX= 0 NMat=1 NMatS=1 NMatT=0.
 ***** Axes restored to original set *****
 -------------------------------------------------------------------
 Center     Atomic                   Forces (Hartrees/Bohr)
 Number     Number              X              Y              Z
 -------------------------------------------------------------------
      1        6          -0.002312635   -0.000329342   -0.000160556
      2        6           0.002600979   -0.000175056    0.000303547
      3        6          -0.004636779   -0.000812005   -0.000572586
      4        1           0.001149014    0.001600631    0.000073136
      5        1           0.001045403   -0.000480557   -0.001254658
      6        1           0.000670867   -0.000387711    0.001481554
      7        6           0.004153497    0.001614331    0.000430145
      8        1          -0.000266851   -0.000716824   -0.001459298
      9        1          -0.001861994    0.000622105   -0.000121632
     10        1          -0.000541502   -0.000935572    0.001280348
 -------------------------------------------------------------------
 Cartesian Forces:  Max     0.004636779 RMS     0.001569205

 GradGradGradGradGradGradGradGradGradGradGradGradGradGradGradGradGradGrad
 Berny optimization.
 Using GEDIIS/GDIIS optimizer.
 FormGI is forming the generalized inverse of G from B-inverse, IUseBI=4.
 Internal  Forces:  Max     0.001739765 RMS     0.001028570
 Search for a local minimum.
 Step number   5 out of a maximum of   40
 All quantities printed in internal units (Hartrees-Bohrs-Radians)
 Mixed Optimization -- RFO/linear search
 Update second derivatives using D2CorX and points    2    3    4    5
 DE= -8.37D-05 DEPred=-7.09D-05 R= 1.18D+00
 TightC=F SS=  1.41D+00  RLast= 4.46D-02 DXNew= 1.4270D+00 1.3393D-01
 Trust test= 1.18D+00 RLast= 4.46D-02 DXMaxT set to 8.49D-01
 ITU=  1  1  1  1  0
 Use linear search instead of GDIIS.
     Eigenvalues ---    0.00201   0.00237   0.02305   0.09467   0.09475
     Eigenvalues ---    0.09559   0.09675   0.12582   0.15994   0.16000
     Eigenvalues ---    0.16000   0.16001   0.16206   0.17787   0.24818
     Eigenvalues ---    0.28520   0.33264   0.37221   0.37230   0.37230
     Eigenvalues ---    0.37230   0.37230   0.40483   1.00836
 RFO step:  Lambda=-1.75425676D-05 EMin= 2.00524062D-03
 Quartic linear search produced a step of  2.00000.
 Iteration  1 RMS(Cart)=  0.00822931 RMS(Int)=  0.00296136
 SLEqS3 Cycle:   301 Max:0.343480E-02 RMS:0.807665E-03 Conv:0.113017E-04
 SLEqS3 Cycle:   301 Max:0.663013E-02 RMS:0.200218E-02 Conv:0.113017E-04
 Iteration  2 RMS(Cart)=  0.00274324 RMS(Int)=  0.00232874
 SLEqS3 Cycle:    33 Max:0.609493E-02 RMS:0.195581E-02 Conv:0.106559E-04
 Iteration  3 RMS(Cart)=  0.00188640 RMS(Int)=  0.00197429
 SLEqS3 Cycle:   301 Max:0.613638E-02 RMS:0.200582E-02 Conv:0.327178E-05
 SLEqS3 Cycle:   301 Max:0.613578E-02 RMS:0.200573E-02 Conv:0.327178E-05
 Iteration  4 RMS(Cart)=  0.00089650 RMS(Int)=  0.00185678
 SLEqS3 Cycle:   301 Max:0.664230E-02 RMS:0.206956E-02 Conv:0.976783E-06
 SLEqS3 Cycle:   301 Max:0.275044E-02 RMS:0.665379E-03 Conv:0.976783E-06
 Iteration  5 RMS(Cart)=  0.00000000 RMS(Int)=  0.00185678
 Variable       Old X    -DE/DX   Delta X   Delta X   Delta X     New X
                                 (Linear)    (Quad)   (Total)
    R1        2.28525  -0.00072  -0.00080   0.00018   0.00001   2.28525
    R2        2.75575   0.00160   0.00340   0.00280   0.00620   2.76195
    R3        2.75519   0.00174   0.00397   0.00276   0.00001   2.75520
    R4        2.07879  -0.00170  -0.00376  -0.00125  -0.00520   2.07359
    R5        2.07905  -0.00169  -0.00412  -0.00118  -0.00517   2.07388
    R6        2.07894  -0.00167  -0.00404  -0.00115  -0.00513   2.07381
    R7        2.07882  -0.00164  -0.00393  -0.00116  -0.00497   2.07386
    R8        2.07869  -0.00168  -0.00360  -0.00128  -0.00510   2.07359
    R9        2.07895  -0.00167  -0.00400  -0.00120  -0.00511   2.07384
    A1        3.11773   0.00162   0.01865  -0.00305   0.01238   3.13011
    A2        3.14159   0.00047   0.01298  -0.00613   0.00000   3.14159
    A3        1.95561  -0.00144  -0.01176   0.00005  -0.01150   1.94411
    A4        1.94362   0.00015   0.00219  -0.00177   0.00026   1.94388
    A5        1.94410   0.00014   0.00203  -0.00179   0.00016   1.94426
    A6        1.87107   0.00059   0.00390   0.00116   0.00509   1.87616
    A7        1.87145   0.00056   0.00348   0.00120   0.00476   1.87620
    A8        1.87369   0.00008   0.00075   0.00143   0.00203   1.87572
    A9        1.94257   0.00021   0.00258  -0.00159   0.00082   1.94339
   A10        1.95743  -0.00152  -0.01232  -0.00015  -0.01220   1.94524
   A11        1.94255   0.00024   0.00294  -0.00172   0.00108   1.94363
   A12        1.87149   0.00055   0.00330   0.00119   0.00456   1.87605
   A13        1.87442   0.00004   0.00045   0.00134   0.00162   1.87604
   A14        1.87112   0.00057   0.00359   0.00119   0.00487   1.87599
    D1        0.31610  -0.00001   0.04116  -0.00248   0.03867   0.35477
    D2        0.97384   0.00018   0.00102  -0.00077   0.00006   0.97390
    D3        3.07053  -0.00002  -0.00143  -0.00046  -0.00190   3.06863
    D4       -1.11646  -0.00017  -0.00325  -0.00024  -0.00328  -1.11973
    D5        3.01463  -0.00002  -0.04208   0.01905  -0.02299   2.99164
    D6       -1.17294  -0.00015  -0.04365   0.01933  -0.02416  -1.19711
    D7        0.91819   0.00016  -0.03984   0.01873  -0.02131   0.89688
         Item               Value     Threshold  Converged?
 Maximum Force            0.001740     0.000450     NO 
 RMS     Force            0.001029     0.000300     NO 
 Maximum Displacement     0.030887     0.001800     NO 
 RMS     Displacement     0.012771     0.001200     NO 
 Predicted change in Energy=-6.544033D-05
 GradGradGradGradGradGradGradGradGradGradGradGradGradGradGradGradGradGrad

                          Input orientation:                          
 ---------------------------------------------------------------------
 Center     Atomic      Atomic             Coordinates (Angstroms)
 Number     Number       Type             X           Y           Z
 ---------------------------------------------------------------------
      1          6           0       -0.002471   -0.637901    0.163926
      2          6           0       -1.151237   -0.988284    0.022559
      3          6           0       -2.536240   -1.410714   -0.147882
      4          1           0       -2.628339   -2.503615   -0.114037
      5          1           0       -3.179460   -1.000809    0.641199
      6          1           0       -2.941590   -1.075076   -1.110877
      7          6           0        1.380740   -0.198599    0.336854
      8          1           0        1.515278    0.332664    1.287660
      9          1           0        2.075165   -1.048201    0.332679
     10          1           0        1.687538    0.482007   -0.467512
 ---------------------------------------------------------------------
                    Distance matrix (angstroms):
                    1          2          3          4          5
     1  C    0.000000
     2  C    1.209304   0.000000
     3  C    2.667292   1.457989   0.000000
     4  H    3.233162   2.120547   1.097297   0.000000
     5  H    3.233072   2.120510   1.097452   1.769898   0.000000
     6  H    3.233367   2.120748   1.097415   1.769898   1.769708
     7  C    1.461562   2.670822   4.128792   4.646409   4.640215
     8  H    2.123284   3.233525   4.638420   5.213329   4.923071
     9  H    2.124474   3.241825   4.650527   4.943757   5.263888
    10  H    2.123449   3.234280   4.639488   5.259817   5.207269
                    6          7          8          9         10
     6  H    0.000000
     7  C    4.641840   0.000000
     8  H    5.253416   1.097439   0.000000
     9  H    5.220383   1.097299   1.769816   0.000000
    10  H    4.926180   1.097430   1.769917   1.769772   0.000000
 Stoichiometry    C4H6
 Framework group  C1[X(C4H6)]
 Deg. of freedom    24
 Full point group                 C1      NOp   1
 Largest Abelian subgroup         C1      NOp   1
 Largest concise Abelian subgroup C1      NOp   1
                         Standard orientation:                         
 ---------------------------------------------------------------------
 Center     Atomic      Atomic             Coordinates (Angstroms)
 Number     Number       Type             X           Y           Z
 ---------------------------------------------------------------------
      1          6           0        0.603585   -0.007930   -0.000274
      2          6           0       -0.605709   -0.003187   -0.000116
      3          6           0       -2.063687    0.002538    0.000072
      4          1           0       -2.467798   -1.002682    0.174107
      5          1           0       -2.461027    0.658362    0.785194
      6          1           0       -2.462808    0.357195   -0.958698
      7          6           0        2.065105    0.003115    0.000102
      8          1           0        2.460252    0.551828    0.864477
      9          1           0        2.474134   -1.014306    0.040293
     10          1           0        2.461478    0.482390   -0.904077
 ---------------------------------------------------------------------
 Rotational constants (GHZ):          80.0315515           3.3481438           3.3481163
 Standard basis: 6-31G(d) (6D, 7F)
 There are    72 symmetry adapted cartesian basis functions of A   symmetry.
 There are    72 symmetry adapted basis functions of A   symmetry.
    72 basis functions,   136 primitive gaussians,    72 cartesian basis functions
    15 alpha electrons       15 beta electrons
       nuclear repulsion energy        99.7938282237 Hartrees.
 NAtoms=   10 NActive=   10 NUniq=   10 SFac= 1.00D+00 NAtFMM=   60 NAOKFM=F Big=F
 Integral buffers will be    131072 words long.
 Raffenetti 2 integral format.
 Two-electron integral symmetry is turned on.
 Nuclear repulsion after empirical dispersion term =       99.7915747955 Hartrees.
 One-electron integrals computed using PRISM.
 NBasis=    72 RedAO= T EigKep=  2.44D-04  NBF=    72
 NBsUse=    72 1.00D-06 EigRej= -1.00D+00 NBFU=    72
 Initial guess from the checkpoint file:  "eneme.chk"
 B after Tr=     0.000000    0.000000   -0.000000
         Rot=    0.753622   -0.657309    0.000043    0.000073 Ang= -82.19 deg.
 ExpMin= 1.61D-01 ExpMax= 3.05D+03 ExpMxC= 4.57D+02 IAcc=2 IRadAn=         4 AccDes= 0.00D+00
 Harris functional with IExCor=  402 and IRadAn=       4 diagonalized for initial guess.
 HarFok:  IExCor=  402 AccDes= 0.00D+00 IRadAn=         4 IDoV= 1 UseB2=F ITyADJ=14
 ICtDFT=  3500011 ScaDFX=  1.000000  1.000000  1.000000  1.000000
 FoFCou: FMM=F IPFlag=           0 FMFlag=      100000 FMFlg1=           0
         NFxFlg=           0 DoJE=T BraDBF=F KetDBF=T FulRan=T
         wScrn=  0.000000 ICntrl=       500 IOpCl=  0 I1Cent=   200000004 NGrid=           0
         NMat0=    1 NMatS0=      1 NMatT0=    0 NMatD0=    1 NMtDS0=    0 NMtDT0=    0
 Petite list used in FoFCou.
 Keep R1 ints in memory in canonical form, NReq=17794696.
 Requested convergence on RMS density matrix=1.00D-08 within 128 cycles.
 Requested convergence on MAX density matrix=1.00D-06.
 Requested convergence on             energy=1.00D-06.
 No special actions if energy rises.
 Integral accuracy reduced to 1.0D-05 until final iterations.
 EnCoef did    11 forward-backward iterations
 Initial convergence to 1.0D-05 achieved.  Increase integral accuracy.
 SCF Done:  E(RB3LYP) =  -155.981216365     A.U. after   10 cycles
            NFock= 10  Conv=0.87D-08     -V/T= 2.0102
 Calling FoFJK, ICntrl=      2127 FMM=F ISym2X=0 I1Cent= 0 IOpClX= 0 NMat=1 NMatS=1 NMatT=0.
[...]
 RMS     Displacement     0.000182     0.001200     YES
 Predicted change in Energy=-1.712645D-07
 GradGradGradGradGradGradGradGradGradGradGradGradGradGradGradGradGradGrad

                          Input orientation:                          
 ---------------------------------------------------------------------
 Center     Atomic      Atomic             Coordinates (Angstroms)
 Number     Number       Type             X           Y           Z
 ---------------------------------------------------------------------
      1          6           0       -0.005355   -0.627216    0.165424
      2          6           0       -1.152181   -0.982601    0.023437
      3          6           0       -2.536910   -1.411708   -0.148003
      4          1           0       -2.615544   -2.505737   -0.178700
      5          1           0       -3.169944   -1.058193    0.675563
      6          1           0       -2.962982   -1.023945   -1.081862
      7          6           0        1.381153   -0.197841    0.337001
      8          1           0        1.507471    0.387223    1.256602
      9          1           0        2.061335   -1.056864    0.396044
     10          1           0        1.712341    0.428354   -0.500938
 ---------------------------------------------------------------------
                    Distance matrix (angstroms):
                    1          2          3          4          5
     1  C    0.000000
     2  C    1.208995   0.000000
     3  C    2.668789   1.459794   0.000000
     4  H    3.234246   2.121847   1.097281   0.000000
     5  H    3.234287   2.121874   1.097254   1.769890   0.000000
     6  H    3.234297   2.121885   1.097265   1.769780   1.769901
     7  C    1.461576   2.670571   4.130365   4.643911   4.644062
     8  H    2.123299   3.235871   4.643930   5.237229   4.930015
     9  H    2.123438   3.235898   4.643894   4.929783   5.238742
    10  H    2.123380   3.235931   4.643977   5.238636   5.237431
                    6          7          8          9         10
     6  H    0.000000
     7  C    4.644042   0.000000
     8  H    5.238775   1.097235   0.000000
     9  H    5.237275   1.097294   1.769947   0.000000
    10  H    4.930039   1.097245   1.769918   1.769815   0.000000
 Stoichiometry    C4H6
 Framework group  C1[X(C4H6)]
 Deg. of freedom    24
 Full point group                 C1      NOp   1
 Largest Abelian subgroup         C1      NOp   1
 Largest concise Abelian subgroup C1      NOp   1
                         Standard orientation:                         
 ---------------------------------------------------------------------
 Center     Atomic      Atomic             Coordinates (Angstroms)
 Number     Number       Type             X           Y           Z
 ---------------------------------------------------------------------
      1          6           0        0.603971   -0.000107    0.000091
      2          6           0       -0.605024   -0.000049    0.000039
      3          6           0       -2.064818    0.000021   -0.000025
      4          1           0       -2.464541    0.538078   -0.868783
      5          1           0       -2.464712   -1.021281   -0.031579
      6          1           0       -2.464688    0.483518    0.900156
      7          6           0        2.065547    0.000031   -0.000033
      8          1           0        2.465302   -1.021167   -0.035733
      9          1           0        2.465240    0.541634   -0.866616
     10          1           0        2.465350    0.479846    0.902121
 ---------------------------------------------------------------------
 Rotational constants (GHZ):          80.0417754           3.3462605           3.3462483
 Standard basis: 6-31G(d) (6D, 7F)
 There are    72 symmetry adapted cartesian basis functions of A   symmetry.
 There are    72 symmetry adapted basis functions of A   symmetry.
    72 basis functions,   136 primitive gaussians,    72 cartesian basis functions
    15 alpha electrons       15 beta electrons
       nuclear repulsion energy        99.7749671951 Hartrees.
 NAtoms=   10 NActive=   10 NUniq=   10 SFac= 1.00D+00 NAtFMM=   60 NAOKFM=F Big=F
 Integral buffers will be    131072 words long.
 Raffenetti 2 integral format.
 Two-electron integral symmetry is turned on.
 Nuclear repulsion after empirical dispersion term =       99.7727133471 Hartrees.
 One-electron integrals computed using PRISM.
 NBasis=    72 RedAO= T EigKep=  2.44D-04  NBF=    72
 NBsUse=    72 1.00D-06 EigRej= -1.00D+00 NBFU=    72
 Initial guess from the checkpoint file:  "eneme.chk"
 B after Tr=     0.000000   -0.000000    0.000000
         Rot=    0.999982    0.006037    0.000001    0.000000 Ang=   0.69 deg.
 Keep R1 ints in memory in canonical form, NReq=17794696.
 Requested convergence on RMS density matrix=1.00D-08 within 128 cycles.
 Requested convergence on MAX density matrix=1.00D-06.
 Requested convergence on             energy=1.00D-06.
 No special actions if energy rises.
 SCF Done:  E(RB3LYP) =  -155.981228323     A.U. after    6 cycles
            NFock=  6  Conv=0.46D-08     -V/T= 2.0102
 Calling FoFJK, ICntrl=      2127 FMM=F ISym2X=0 I1Cent= 0 IOpClX= 0 NMat=1 NMatS=1 NMatT=0.
 ***** Axes restored to original set *****
 -------------------------------------------------------------------
 Center     Atomic                   Forces (Hartrees/Bohr)
 Number     Number              X              Y              Z
 -------------------------------------------------------------------
      1        6          -0.000172379   -0.000070579   -0.000030852
      2        6           0.001300517    0.000409013    0.000161243
      3        6          -0.000924860   -0.000310112   -0.000129175
      4        1          -0.000060404   -0.000009241    0.000002739
      5        1          -0.000064163   -0.000018320   -0.000008063
      6        1          -0.000060225   -0.000007566   -0.000001556
      7        6          -0.000019118   -0.000032203   -0.000011757
      8        1           0.000020246    0.000005100    0.000000625
      9        1          -0.000019907    0.000022528    0.000010365
     10        1           0.000000293    0.000011382    0.000006431
 -------------------------------------------------------------------
 Cartesian Forces:  Max     0.001300517 RMS     0.000311106

 GradGradGradGradGradGradGradGradGradGradGradGradGradGradGradGradGradGrad
 Berny optimization.
 Using GEDIIS/GDIIS optimizer.
 FormGI is forming the generalized inverse of G from B-inverse, IUseBI=4.
 Internal  Forces:  Max     0.001170054 RMS     0.000218734
 Search for a local minimum.
 Step number  38 out of a maximum of   40
 All quantities printed in internal units (Hartrees-Bohrs-Radians)
 Mixed Optimization -- En-DIIS/RFO-DIIS
 Swapping is turned off.
 Update second derivatives using D2CorX and points   37   38
 DE= -1.45D-07 DEPred=-1.71D-07 R= 8.49D-01
 Trust test= 8.49D-01 RLast= 6.46D-01 DXMaxT set to 5.00D-02
 ITU=  0 -1 -1  0 -1  0  0 -1  0  0 -1  0 -1 -1  0 -1  0 -1  0  0
 ITU= -1 -1  0 -1 -1  1 -1  0  0  0  1
     Eigenvalues ---    0.00000   0.00000   0.00013   0.07271   0.07660
     Eigenvalues ---    0.08430   0.09105   0.09489   0.09595   0.12629
     Eigenvalues ---    0.13041   0.15424   0.15751   0.16163   0.16517
     Eigenvalues ---    0.32931   0.33110   0.34359   0.35680   0.36778
     Eigenvalues ---    0.37934   0.38275   0.54270   1.03206
 Eigenvalue     1 is   1.36D-11 Eigenvector:
                          D2        D3        D4        D1        D5
   1                    0.50948   0.50948   0.50948  -0.46371  -0.04574
                          D6        D7        A1        A2        R1
   1                   -0.04574  -0.04574  -0.00003  -0.00001   0.00000
 Eigenvalue     2 is   5.97D-09 Eigenvector:
                          D5        D6        D7        D1        D3
   1                    0.51433   0.51433   0.51432  -0.43018  -0.08435
                          D2        D4        R3        A1        A14
   1                   -0.08434  -0.08431   0.00007   0.00004   0.00002
 En-DIIS/RFO-DIIS/Sim-DIIS IScMMF=       -3 using points:    38   37   36   35   34   33   32   31   30   29
 RFO step:  Lambda=-3.26452216D-06.
 DIIS inversion failure, remove point  10.
 DIIS inversion failure, remove point   9.
 DIIS inversion failure, remove point   8.
 DIIS inversion failure, remove point   7.
 DIIS inversion failure, remove point   6.
 DIIS inversion failure, remove point   5.
 DIIS inversion failure, remove point   4.
 DIIS inversion failure, remove point   3.
 DIIS inversion failure, remove point   2.
 Use linear search instead of GDIIS.
 RFO step:  Lambda=-3.26456217D-06 EMin= 1.00000000D-04
 Skip linear search -- no minimum in search direction.
 Iteration  1 RMS(Cart)=  0.00037552 RMS(Int)=  0.00062263
 New curvilinear step failed, DQL= 6.28D+00 SP=-2.26D-01.
 ITry= 1 IFail=1 DXMaxC= 7.19D-04 DCOld= 1.00D+10 DXMaxT= 5.00D-02 DXLimC= 3.00D+00 Rises=F
 New curvilinear step failed:  FormB failed.
 ITry= 2 IFail=2 DXMaxC= 6.50D-04 DCOld= 1.00D+10 DXMaxT= 5.00D-02 DXLimC= 3.00D+00 Rises=F
 Iteration  1 RMS(Cart)=  0.00030294 RMS(Int)=  0.00049789
 New curvilinear step failed, DQL= 6.28D+00 SP=-2.06D-01.
 ITry= 3 IFail=1 DXMaxC= 5.80D-04 DCOld= 1.00D+10 DXMaxT= 5.00D-02 DXLimC= 3.00D+00 Rises=F
 New curvilinear step failed:  FormB failed.
 ITry= 4 IFail=2 DXMaxC= 5.09D-04 DCOld= 1.00D+10 DXMaxT= 5.00D-02 DXLimC= 3.00D+00 Rises=F
 New curvilinear step failed:  FormB failed.
 ITry= 5 IFail=2 DXMaxC= 4.38D-04 DCOld= 1.00D+10 DXMaxT= 5.00D-02 DXLimC= 3.00D+00 Rises=F
 Iteration  1 RMS(Cart)=  0.00019116 RMS(Int)=  0.00031102
 New curvilinear step failed:  FormB failed.
 ITry= 6 IFail=2 DXMaxC= 5.68D-04 DCOld= 1.00D+10 DXMaxT= 5.00D-02 DXLimC= 3.00D+00 Rises=F
 New curvilinear step failed:  FormB failed.
 ITry= 7 IFail=2 DXMaxC= 2.94D-04 DCOld= 1.00D+10 DXMaxT= 5.00D-02 DXLimC= 3.00D+00 Rises=F
 New curvilinear step failed:  FormB failed.
 ITry= 8 IFail=2 DXMaxC= 2.21D-04 DCOld= 1.00D+10 DXMaxT= 5.00D-02 DXLimC= 3.00D+00 Rises=F
 Iteration  1 RMS(Cart)=  0.00007700 RMS(Int)=  0.00012436
 Iteration  2 RMS(Cart)=  0.00005297 RMS(Int)=  0.00011288
 SLEqS3 Cycle:    44 Max:0.558313E-03 RMS:0.151239E-03 Conv:0.770213E-04
 Iteration  3 RMS(Cart)=  0.00000000 RMS(Int)=  0.00011288
 ITry= 9 IFail=0 DXMaxC= 2.40D-04 DCOld= 1.00D+10 DXMaxT= 5.00D-02 DXLimC= 3.00D+00 Rises=F
 Variable       Old X    -DE/DX   Delta X   Delta X   Delta X     New X
                                 (Linear)    (Quad)   (Total)
    R1        2.28467  -0.00020   0.00000  -0.00050   0.00000   2.28467
    R2        2.76198  -0.00001   0.00000  -0.00006  -0.00002   2.76195
    R3        2.75861   0.00117   0.00000   0.00262   0.00000   2.75861
    R4        2.07356   0.00001   0.00000  -0.00004   0.00000   2.07356
    R5        2.07351   0.00003   0.00000  -0.00011  -0.00003   2.07348
    R6        2.07353   0.00002   0.00000   0.00018   0.00003   2.07356
    R7        2.07347   0.00001   0.00000  -0.00028  -0.00006   2.07341
    R8        2.07359  -0.00003   0.00000  -0.00015  -0.00002   2.07357
    R9        2.07349   0.00000   0.00000   0.00002   0.00000   2.07349
    A1        3.14140   0.00002   0.00000   0.00191   0.00011   3.14151
    A2        3.14159  -0.00001   0.00000  -0.00071   0.00000   3.14159
    A3        1.94372   0.00006   0.00000   0.00029   0.00004   1.94377
    A4        1.94379   0.00006   0.00000  -0.00008  -0.00001   1.94378
    A5        1.94379   0.00005   0.00000   0.00004   0.00001   1.94381
    A6        1.87641  -0.00007   0.00000  -0.00021  -0.00004   1.87637
    A7        1.87623  -0.00005   0.00000  -0.00000  -0.00001   1.87622
    A8        1.87645  -0.00007   0.00000  -0.00005  -0.00000   1.87645
    A9        1.94362   0.00002   0.00000   0.00092   0.00018   1.94380
   A10        1.94375  -0.00000   0.00000  -0.00031  -0.00007   1.94368
   A11        1.94372   0.00000   0.00000  -0.00016  -0.00003   1.94370
   A12        1.87651  -0.00002   0.00000  -0.00023  -0.00005   1.87646
   A13        1.87652  -0.00002   0.00000  -0.00018  -0.00002   1.87650
   A14        1.87629   0.00001   0.00000  -0.00007  -0.00002   1.87627
    D1       -3.04526  -0.00000   0.00000  -0.00106  -0.00022  -3.04548
    D2       -2.37121   0.00000   0.00000  -0.00026  -0.00002  -2.37123
    D3       -0.27675  -0.00001   0.00000  -0.00014  -0.00001  -0.27676
    D4        1.81751   0.00000   0.00000  -0.00054  -0.00010   1.81741
    D5       -2.95711   0.00001   0.00000   0.00032   0.00006  -2.95706
    D6       -0.86268   0.00000   0.00000   0.00019   0.00003  -0.86265
    D7        1.23186  -0.00001   0.00000   0.00010   0.00003   1.23189
         Item               Value     Threshold  Converged?
 Maximum Force            0.001170     0.000450     NO 
 RMS     Force            0.000219     0.000300     YES
 Maximum Displacement     0.000240     0.001800     YES
 RMS     Displacement     0.000115     0.001200     YES
 Predicted change in Energy=-8.812027D-09
 GradGradGradGradGradGradGradGradGradGradGradGradGradGradGradGradGradGrad

                          Input orientation:                          
 ---------------------------------------------------------------------
 Center     Atomic      Atomic             Coordinates (Angstroms)
 Number     Number       Type             X           Y           Z
 ---------------------------------------------------------------------
      1          6           0       -0.005328   -0.627289    0.165419
      2          6           0       -1.152164   -0.982642    0.023431
      3          6           0       -2.536904   -1.411711   -0.148012
      4          1           0       -2.615604   -2.505734   -0.178812
      5          1           0       -3.169891   -1.058287    0.675611
      6          1           0       -2.963022   -1.023832   -1.081821
      7          6           0        1.381129   -0.197813    0.337038
      8          1           0        1.507547    0.387344    1.256529
      9          1           0        2.061298   -1.056829    0.396171
     10          1           0        1.712323    0.428266   -0.500985
 ---------------------------------------------------------------------
                    Distance matrix (angstroms):
                    1          2          3          4          5
     1  C    0.000000
     2  C    1.208995   0.000000
     3  C    2.668789   1.459794   0.000000
     4  H    3.234283   2.121878   1.097282   0.000000
     5  H    3.234271   2.121858   1.097240   1.769851   0.000000
     6  H    3.234317   2.121906   1.097281   1.769790   1.769900
     7  C    1.461563   2.670558   4.130352   4.643972   4.644010
     8  H    2.123391   3.235962   4.644019   5.237411   4.930085
     9  H    2.123369   3.235858   4.643871   4.929842   5.238647
    10  H    2.123350   3.235886   4.643925   5.238616   5.237388
                    6          7          8          9         10
     6  H    0.000000
     7  C    4.644041   0.000000
     8  H    5.238824   1.097202   0.000000
     9  H    5.237302   1.097285   1.769884   0.000000
    10  H    4.929991   1.097245   1.769876   1.769796   0.000000
 Stoichiometry    C4H6
 Framework group  C1[X(C4H6)]
 Deg. of freedom    24
 Full point group                 C1      NOp   1
 Largest Abelian subgroup         C1      NOp   1
 Largest concise Abelian subgroup C1      NOp   1
                         Standard orientation:                         
 ---------------------------------------------------------------------
 Center     Atomic      Atomic             Coordinates (Angstroms)
 Number     Number       Type             X           Y           Z
 ---------------------------------------------------------------------
      1          6           0        0.603974   -0.000054    0.000051
      2          6           0       -0.605021   -0.000029    0.000024
      3          6           0       -2.064815    0.000002   -0.000009
      4          1           0       -2.464616    0.414617   -0.933969
      5          1           0       -2.464672   -1.016071    0.107907
      6          1           0       -2.464693    0.601649    0.825911
      7          6           0        2.065537   -0.000005   -0.000011
      8          1           0        2.465411   -1.016437    0.104004
      9          1           0        2.465224    0.418267   -0.932391
     10          1           0        2.465297    0.598492    0.828205
 ---------------------------------------------------------------------
 Rotational constants (GHZ):          80.0440992           3.3462663           3.3462571
 Standard basis: 6-31G(d) (6D, 7F)
 There are    72 symmetry adapted cartesian basis functions of A   symmetry.
 There are    72 symmetry adapted basis functions of A   symmetry.
    72 basis functions,   136 primitive gaussians,    72 cartesian basis functions
    15 alpha electrons       15 beta electrons
       nuclear repulsion energy        99.7752189313 Hartrees.
 NAtoms=   10 NActive=   10 NUniq=   10 SFac= 1.00D+00 NAtFMM=   60 NAOKFM=F Big=F
 Integral buffers will be    131072 words long.
 Raffenetti 2 integral format.
 Two-electron integral symmetry is turned on.
 Nuclear repulsion after empirical dispersion term =       99.7729651091 Hartrees.
 One-electron integrals computed using PRISM.
 NBasis=    72 RedAO= T EigKep=  2.44D-04  NBF=    72
 NBsUse=    72 1.00D-06 EigRej= -1.00D+00 NBFU=    72
 Initial guess from the checkpoint file:  "eneme.chk"
 B after Tr=     0.000000    0.000000   -0.000000
         Rot=    0.997661    0.068352   -0.000000   -0.000002 Ang=   7.84 deg.
 Keep R1 ints in memory in canonical form, NReq=17794696.
 Requested convergence on RMS density matrix=1.00D-08 within 128 cycles.
 Requested convergence on MAX density matrix=1.00D-06.
 Requested convergence on             energy=1.00D-06.
 No special actions if energy rises.
 SCF Done:  E(RB3LYP) =  -155.981228467     A.U. after    6 cycles
            NFock=  6  Conv=0.28D-08     -V/T= 2.0102
 Calling FoFJK, ICntrl=      2127 FMM=F ISym2X=0 I1Cent= 0 IOpClX= 0 NMat=1 NMatS=1 NMatT=0.
 ***** Axes restored to original set *****
 -------------------------------------------------------------------
 Center     Atomic                   Forces (Hartrees/Bohr)
 Number     Number              X              Y              Z
 -------------------------------------------------------------------
      1        6          -0.000184409   -0.000058092   -0.000018337
      2        6           0.001300080    0.000404834    0.000159687
      3        6          -0.000926697   -0.000312037   -0.000141469
      4        1          -0.000055811   -0.000009270    0.000000826
      5        1          -0.000069798   -0.000011846   -0.000001918
      6        1          -0.000055736   -0.000010553    0.000006796
      7        6          -0.000005127   -0.000048969   -0.000039317
      8        1           0.000006473    0.000015556    0.000018938
      9        1          -0.000010780    0.000018371    0.000009434
     10        1           0.000001805    0.000012005    0.000005361
 -------------------------------------------------------------------
 Cartesian Forces:  Max     0.001300080 RMS     0.000311463

 GradGradGradGradGradGradGradGradGradGradGradGradGradGradGradGradGradGrad
 Berny optimization.
 Using GEDIIS/GDIIS optimizer.
 Bend failed for angle     1 -     2 -     3
 Tors failed for dihedral     7 -     1 -     2 -     3
 Tors failed for dihedral     1 -     2 -     3 -     4
 Tors failed for dihedral     1 -     2 -     3 -     5
 Tors failed for dihedral     1 -     2 -     3 -     6
 FormBX had a problem.
 Error termination via Lnk1e in /share/apps/gaussian/g16/l103.exe at Thu Feb 22 10:39:42 2024.
 Job cpu time:       0 days  0 hours 32 minutes 35.5 seconds.
 Elapsed time:       0 days  0 hours  2 minutes 29.1 seconds.
 File lengths (MBytes):  RWF=      6 Int=      0 D2E=      0 Chk=      2 Scr=      1
Thu Feb 22 10:39:45 CST 2024
