 Entering Gaussian System, Link 0=g16
 Initial command:
 /share/apps/gaussian/g16/l1.exe "/tmp/58285.mgr/Gau-17157.inp" -scrdir="/tmp/58285.mgr/"
 Entering Link 1 = /share/apps/gaussian/g16/l1.exe PID=     17158.
  
 Copyright (c) 1988,1990,1992,1993,1995,1998,2003,2009,2016,
            Gaussian, Inc.  All Rights Reserved.
  
 This is part of the Gaussian(R) 16 program.  It is based on
 the Gaussian(R) 09 system (copyright 2009, Gaussian, Inc.),
 the Gaussian(R) 03 system (copyright 2003, Gaussian, Inc.),
 the Gaussian(R) 98 system (copyright 1998, Gaussian, Inc.),
 the Gaussian(R) 94 system (copyright 1995, Gaussian, Inc.),
 the Gaussian 92(TM) system (copyright 1992, Gaussian, Inc.),
 the Gaussian 90(TM) system (copyright 1990, Gaussian, Inc.),
 the Gaussian 88(TM) system (copyright 1988, Gaussian, Inc.),
 the Gaussian 86(TM) system (copyright 1986, Carnegie Mellon
 University), and the Gaussian 82(TM) system (copyright 1983,
 Carnegie Mellon University). Gaussian is a federally registered
 trademark of Gaussian, Inc.
  
 This software contains proprietary and confidential information,
 including trade secrets, belonging to Gaussian, Inc.
  
 This software is provided under written license and may be
 used, copied, transmitted, or stored only in accord with that
 written license.
  
 The following legend is applicable only to US Government
 contracts under FAR:
  
                    RESTRICTED RIGHTS LEGEND
  
 Use, reproduction and disclosure by the US Government is
 subject to restrictions as set forth in subparagraphs (a)
 and (c) of the Commercial Computer Software - Restricted
 Rights clause in FAR 52.227-19.
  
 Gaussian, Inc.
 340 Quinnipiac St., Bldg. 40, Wallingford CT 06492
  
  
 ---------------------------------------------------------------
 Warning -- This program may not be used in any manner that
 competes with the business of Gaussian, Inc. or will provide
 assistance to any competitor of Gaussian, Inc.  The licensee
 of this program is prohibited from giving any competitor of
 Gaussian, Inc. access to this program.  By using this program,
 the user acknowledges that Gaussian, Inc. is engaged in the
 business of creating and licensing software in the field of
 computational chemistry and represents and warrants to the
 licensee that it is not a competitor of Gaussian, Inc. and that
 it will not use this program in any manner prohibited above.
 ---------------------------------------------------------------
  

 Cite this work as:
 Gaussian 16, Revision A.03,
 M. J. Frisch, G. W. Trucks, H. B. Schlegel, G. E. Scuseria, 
 M. A. Robb, J. R. Cheeseman, G. Scalmani, V. Barone, 
 G. A. Petersson, H. Nakatsuji, X. Li, M. Caricato, A. V. Marenich, 
 J. Bloino, B. G. Janesko, R. Gomperts, B. Mennucci, H. P. Hratchian, 
 J. V. Ortiz, A. F. Izmaylov, J. L. Sonnenberg, D. Williams-Young, 
 F. Ding, F. Lipparini, F. Egidi, J. Goings, B. Peng, A. Petrone, 
 T. Henderson, D. Ranasinghe, V. G. Zakrzewski, J. Gao, N. Rega, 
 G. Zheng, W. Liang, M. Hada, M. Ehara, K. Toyota, R. Fukuda, 
 J. Hasegawa, M. Ishida, T. Nakajima, Y. Honda, O. Kitao, H. Nakai, 
 T. Vreven, K. Throssell, J. A. Montgomery, Jr., J. E. Peralta, 
 F. Ogliaro, M. J. Bearpark, J. J. Heyd, E. N. Brothers, K. N. Kudin, 
 V. N. Staroverov, T. A. Keith, R. Kobayashi, J. Normand, 
 K. Raghavachari, A. P. Rendell, J. C. Burant, S. S. Iyengar, 
 J. Tomasi, M. Cossi, J. M. Millam, M. Klene, C. Adamo, R. Cammi, 
 J. W. Ochterski, R. L. Martin, K. Morokuma, O. Farkas, 
 J. B. Foresman, and D. J. Fox, Gaussian, Inc., Wallingford CT, 2016.
 
 ******************************************
 Gaussian 16:  ES64L-G16RevA.03 25-Dec-2016
                12-Oct-2023 
 ******************************************
 %nprocshared=4
 Will use up to    4 processors via shared memory.
 %mem=4GB
 ------------------
 # ub3lyp/6-31+g(d)
 ------------------
 1/38=1,172=1/1;
 2/12=2,17=6,18=5,40=1/2;
 3/5=1,6=6,7=11,11=2,25=1,30=1,74=-5,116=2/1,2,3;
 4//1;
 5/5=2,38=5/2;
 6/7=2,8=2,9=2,10=2,28=1/1;
 99/5=1,9=1/99;
 ----------------------
 tmpdir/M1_conf_0_4.gjf
 ----------------------
 Symbolic Z-matrix:
 Charge =  0 Multiplicity = 1
 C                    -1.93574   0.64574  -0.99346 
 C                    -1.83277  -0.71816  -1.12364 
 H                    -2.48026  -1.31303  -1.75555 
 H                    -2.66898   1.24486  -1.52334 
 H                    -1.26717   1.12621  -0.27656 
 H                    -1.22624  -1.1583   -0.32391 
 
                          Input orientation:                          
 ---------------------------------------------------------------------
 Center     Atomic      Atomic             Coordinates (Angstroms)
 Number     Number       Type             X           Y           Z
 ---------------------------------------------------------------------
      1          6           0       -1.935743    0.645740   -0.993458
      2          6           0       -1.832769   -0.718159   -1.123637
      3          1           0       -2.480259   -1.313026   -1.755546
      4          1           0       -2.668984    1.244856   -1.523339
      5          1           0       -1.267170    1.126215   -0.276565
      6          1           0       -1.226235   -1.158300   -0.323906
 ---------------------------------------------------------------------
                    Distance matrix (angstroms):
                    1          2          3          4          5
     1  C    0.000000
     2  C    1.373963   0.000000
     3  H    2.171184   1.082782   0.000000
     4  H    1.085060   2.170817   2.575325   0.000000
     5  H    1.091688   2.106929   3.099817   1.879788   0.000000
     6  H    2.050918   1.095983   1.909479   3.048824   2.285372
                    6
     6  H    0.000000
 Stoichiometry    C2H4
 Framework group  C1[X(C2H4)]
 Deg. of freedom    12
 Full point group                 C1      NOp   1
 Largest Abelian subgroup         C1      NOp   1
 Largest concise Abelian subgroup C1      NOp   1
                         Standard orientation:                         
 ---------------------------------------------------------------------
 Center     Atomic      Atomic             Coordinates (Angstroms)
 Number     Number       Type             X           Y           Z
 ---------------------------------------------------------------------
      1          6           0       -0.681809   -0.015204   -0.004949
      2          6           0        0.691803   -0.006900   -0.034853
      3          1           0        1.300850   -0.898953    0.040784
      4          1           0       -1.274003   -0.919911    0.085415
      5          1           0       -1.183003    0.954430   -0.024896
      6          1           0        1.096193    0.997061    0.137510
 ---------------------------------------------------------------------
 Rotational constants (GHZ):         139.1990697          29.1692969          24.2098487
 Standard basis: 6-31+G(d) (6D, 7F)
 There are    46 symmetry adapted cartesian basis functions of A   symmetry.
 There are    46 symmetry adapted basis functions of A   symmetry.
    46 basis functions,    80 primitive gaussians,    46 cartesian basis functions
     8 alpha electrons        8 beta electrons
       nuclear repulsion energy        32.8491726048 Hartrees.
 NAtoms=    6 NActive=    6 NUniq=    6 SFac= 1.00D+00 NAtFMM=   60 NAOKFM=F Big=F
 Integral buffers will be    131072 words long.
 Raffenetti 2 integral format.
 Two-electron integral symmetry is turned on.
 One-electron integrals computed using PRISM.
 NBasis=    46 RedAO= T EigKep=  2.58D-04  NBF=    46
 NBsUse=    46 1.00D-06 EigRej= -1.00D+00 NBFU=    46
 ExpMin= 4.38D-02 ExpMax= 3.05D+03 ExpMxC= 4.57D+02 IAcc=3 IRadAn=         5 AccDes= 0.00D+00
 Harris functional with IExCor=  402 and IRadAn=       5 diagonalized for initial guess.
 HarFok:  IExCor=  402 AccDes= 0.00D+00 IRadAn=         5 IDoV= 1 UseB2=F ITyADJ=14
 ICtDFT=  3500011 ScaDFX=  1.000000  1.000000  1.000000  1.000000
 FoFCou: FMM=F IPFlag=           0 FMFlag=      100000 FMFlg1=           0
         NFxFlg=           0 DoJE=T BraDBF=F KetDBF=T FulRan=T
         wScrn=  0.000000 ICntrl=       500 IOpCl=  0 I1Cent=   200000004 NGrid=           0
         NMat0=    1 NMatS0=      1 NMatT0=    0 NMatD0=    1 NMtDS0=    0 NMtDT0=    0
 Petite list used in FoFCou.
 Initial guess <Sx>= 0.0000 <Sy>= 0.0000 <Sz>= 0.0000 <S**2>= 0.0000 S= 0.0000
 Keep R1 and R2 ints in memory in canonical form, NReq=4639192.
 Requested convergence on RMS density matrix=1.00D-08 within 128 cycles.
 Requested convergence on MAX density matrix=1.00D-06.
 Requested convergence on             energy=1.00D-06.
 No special actions if energy rises.
 SCF Done:  E(UB3LYP) =  -78.5863389293     A.U. after    9 cycles
            NFock=  9  Conv=0.87D-08     -V/T= 2.0122
 <Sx>= 0.0000 <Sy>= 0.0000 <Sz>= 0.0000 <S**2>= 0.0000 S= 0.0000
 <L.S>= 0.000000000000E+00
 Annihilation of the first spin contaminant:
 S**2 before annihilation     0.0000,   after    -0.0000

 **********************************************************************

            Population analysis using the SCF density.

 **********************************************************************

 Orbital symmetries:
 Alpha Orbitals:
       Occupied  (A) (A) (A) (A) (A) (A) (A) (A)
       Virtual   (A) (A) (A) (A) (A) (A) (A) (A) (A) (A) (A) (A)
                 (A) (A) (A) (A) (A) (A) (A) (A) (A) (A) (A) (A)
                 (A) (A) (A) (A) (A) (A) (A) (A) (A) (A) (A) (A)
                 (A) (A)
 Beta  Orbitals:
       Occupied  (A) (A) (A) (A) (A) (A) (A) (A)
       Virtual   (A) (A) (A) (A) (A) (A) (A) (A) (A) (A) (A) (A)
                 (A) (A) (A) (A) (A) (A) (A) (A) (A) (A) (A) (A)
                 (A) (A) (A) (A) (A) (A) (A) (A) (A) (A) (A) (A)
                 (A) (A)
 The electronic state is 1-A.
 Alpha  occ. eigenvalues --  -10.20100 -10.20005  -0.75939  -0.58472  -0.47861
 Alpha  occ. eigenvalues --   -0.41178  -0.37044  -0.27117
 Alpha virt. eigenvalues --   -0.01714   0.02489   0.03357   0.04644   0.06968
 Alpha virt. eigenvalues --    0.08531   0.08729   0.12495   0.15620   0.17142
 Alpha virt. eigenvalues --    0.20110   0.24167   0.32203   0.34977   0.58700
 Alpha virt. eigenvalues --    0.65892   0.67725   0.71732   0.74018   0.82122
 Alpha virt. eigenvalues --    0.91021   0.91688   0.95610   0.99853   1.14490
 Alpha virt. eigenvalues --    1.20426   1.44488   1.57077   1.80497   1.91403
 Alpha virt. eigenvalues --    1.99043   2.10406   2.29265   2.35258   2.59174
 Alpha virt. eigenvalues --    2.68642   4.10319   4.25787
  Beta  occ. eigenvalues --  -10.20100 -10.20005  -0.75939  -0.58472  -0.47861
  Beta  occ. eigenvalues --   -0.41178  -0.37044  -0.27117
  Beta virt. eigenvalues --   -0.01714   0.02489   0.03357   0.04644   0.06968
  Beta virt. eigenvalues --    0.08531   0.08729   0.12495   0.15620   0.17142
  Beta virt. eigenvalues --    0.20110   0.24167   0.32203   0.34977   0.58700
  Beta virt. eigenvalues --    0.65892   0.67725   0.71732   0.74018   0.82122
  Beta virt. eigenvalues --    0.91021   0.91688   0.95610   0.99853   1.14490
  Beta virt. eigenvalues --    1.20426   1.44488   1.57077   1.80497   1.91403
  Beta virt. eigenvalues --    1.99043   2.10406   2.29265   2.35258   2.59174
  Beta virt. eigenvalues --    2.68642   4.10319   4.25787
          Condensed to atoms (all electrons):
               1          2          3          4          5          6
     1  C    5.048029   0.639794  -0.034910   0.375983   0.387554  -0.048659
     2  C    0.639794   5.028056   0.382667  -0.029644  -0.042134   0.390292
     3  H   -0.034910   0.382667   0.494578  -0.005179   0.003916  -0.030029
     4  H    0.375983  -0.029644  -0.005179   0.499551  -0.032091   0.004426
     5  H    0.387554  -0.042134   0.003916  -0.032091   0.510184  -0.009386
     6  H   -0.048659   0.390292  -0.030029   0.004426  -0.009386   0.514399
          Atomic-Atomic Spin Densities.
               1          2          3          4          5          6
     1  C   -0.000000   0.000000  -0.000000  -0.000000  -0.000000  -0.000000
     2  C    0.000000   0.000000   0.000000   0.000000   0.000000   0.000000
     3  H   -0.000000   0.000000  -0.000000  -0.000000  -0.000000  -0.000000
     4  H   -0.000000   0.000000  -0.000000   0.000000   0.000000  -0.000000
     5  H   -0.000000   0.000000  -0.000000   0.000000   0.000000  -0.000000
     6  H   -0.000000   0.000000  -0.000000  -0.000000  -0.000000   0.000000
 Mulliken charges and spin densities:
               1          2
     1  C   -0.367792  -0.000000
     2  C   -0.369031   0.000000
     3  H    0.188957  -0.000000
     4  H    0.186952   0.000000
     5  H    0.181958   0.000000
     6  H    0.178956   0.000000
 Sum of Mulliken charges =  -0.00000  -0.00000
 Mulliken charges and spin densities with hydrogens summed into heavy atoms:
               1          2
     1  C    0.001118  -0.000000
     2  C   -0.001118   0.000000
 Electronic spatial extent (au):  <R**2>=             84.8197
 Charge=             -0.0000 electrons
 Dipole moment (field-independent basis, Debye):
    X=             -0.0509    Y=              0.0053    Z=              0.2631  Tot=              0.2681
 Quadrupole moment (field-independent basis, Debye-Ang):
   XX=            -12.7250   YY=            -12.2808   ZZ=            -16.1950
   XY=             -0.1496   XZ=              0.1430   YZ=              0.0118
 Traceless Quadrupole moment (field-independent basis, Debye-Ang):
   XX=              1.0086   YY=              1.4528   ZZ=             -2.4614
   XY=             -0.1496   XZ=              0.1430   YZ=              0.0118
 Octapole moment (field-independent basis, Debye-Ang**2):
  XXX=             -0.2722  YYY=              0.2326  ZZZ=              0.5034  XYY=             -0.0078
  XXY=             -0.6779  XXZ=              0.5910  XZZ=             -0.0279  YZZ=              0.0129
  YYZ=              0.3907  XYZ=              0.3184
 Hexadecapole moment (field-independent basis, Debye-Ang**3):
 XXXX=            -73.0957 YYYY=            -28.5164 ZZZZ=            -23.2405 XXXY=             -0.7266
 XXXZ=              0.3202 YYYX=             -0.2032 YYYZ=              0.0432 ZZZX=              0.2004
 ZZZY=              0.0186 XXYY=            -14.4781 XXZZ=            -16.9755 YYZZ=             -9.2646
 XXYZ=             -0.0713 YYXZ=              0.2171 ZZXY=             -0.0293
 N-N= 3.284917260482D+01 E-N=-2.468222058432D+02  KE= 7.763804390294D+01
                          Isotropic Fermi Contact Couplings
        Atom                 a.u.       MegaHertz       Gauss      10(-4) cm-1
     1  C(13)              0.00000       0.00000       0.00000       0.00000
     2  C(13)              0.00000       0.00000       0.00000       0.00000
     3  H(1)              -0.00000      -0.00000      -0.00000      -0.00000
     4  H(1)              -0.00000      -0.00000      -0.00000      -0.00000
     5  H(1)               0.00000       0.00000       0.00000       0.00000
     6  H(1)              -0.00000      -0.00000      -0.00000      -0.00000
 --------------------------------------------------------
       Center         ----  Spin Dipole Couplings  ----
                      3XX-RR        3YY-RR        3ZZ-RR
 --------------------------------------------------------
     1   Atom        0.000000      0.000000      0.000000
     2   Atom        0.000000      0.000000      0.000000
     3   Atom        0.000000      0.000000      0.000000
     4   Atom        0.000000      0.000000      0.000000
     5   Atom        0.000000      0.000000      0.000000
     6   Atom        0.000000      0.000000      0.000000
 --------------------------------------------------------
                        XY            XZ            YZ
 --------------------------------------------------------
     1   Atom        0.000000      0.000000      0.000000
     2   Atom        0.000000      0.000000      0.000000
     3   Atom        0.000000      0.000000      0.000000
     4   Atom        0.000000      0.000000      0.000000
     5   Atom        0.000000      0.000000      0.000000
     6   Atom        0.000000      0.000000      0.000000
 --------------------------------------------------------


 ---------------------------------------------------------------------------------
              Anisotropic Spin Dipole Couplings in Principal Axis System
 ---------------------------------------------------------------------------------

       Atom             a.u.   MegaHertz   Gauss  10(-4) cm-1        Axes

              Baa     0.0000     0.000     0.000     0.000  1.0000  0.0000  0.0000
     1 C(13)  Bbb     0.0000     0.000     0.000     0.000 -0.0000  1.0000  0.0000
              Bcc     0.0000     0.000     0.000     0.000  0.0000  0.0000  1.0000
 
              Baa     0.0000     0.000     0.000     0.000  1.0000  0.0000  0.0000
     2 C(13)  Bbb     0.0000     0.000     0.000     0.000 -0.0000  1.0000  0.0000
              Bcc     0.0000     0.000     0.000     0.000  0.0000  0.0000  1.0000
 
              Baa     0.0000     0.000     0.000     0.000  1.0000  0.0000  0.0000
     3 H(1)   Bbb     0.0000     0.000     0.000     0.000 -0.0000  1.0000  0.0000
              Bcc     0.0000     0.000     0.000     0.000  0.0000  0.0000  1.0000
 
              Baa     0.0000     0.000     0.000     0.000  1.0000  0.0000  0.0000
     4 H(1)   Bbb     0.0000     0.000     0.000     0.000 -0.0000  1.0000  0.0000
              Bcc     0.0000     0.000     0.000     0.000  0.0000  0.0000  1.0000
 
              Baa     0.0000     0.000     0.000     0.000  1.0000  0.0000  0.0000
     5 H(1)   Bbb     0.0000     0.000     0.000     0.000 -0.0000  1.0000  0.0000
              Bcc     0.0000     0.000     0.000     0.000  0.0000  0.0000  1.0000
 
              Baa     0.0000     0.000     0.000     0.000  1.0000  0.0000  0.0000
     6 H(1)   Bbb     0.0000     0.000     0.000     0.000 -0.0000  1.0000  0.0000
              Bcc     0.0000     0.000     0.000     0.000  0.0000  0.0000  1.0000
 

 ---------------------------------------------------------------------------------

 1\1\GINC-NODE33\SP\UB3LYP\6-31+G(d)\C2H4\YANZ\12-Oct-2023\0\\# ub3lyp/
 6-31+g(d)\\tmpdir/M1_conf_0_4.gjf\\0,1\C,0,-1.93574325,0.64574045,-0.9
 9345819\C,0,-1.83276906,-0.7181594,-1.12363738\H,0,-2.4802587,-1.31302
 554,-1.75554645\H,0,-2.66898394,1.24485641,-1.52333872\H,0,-1.26716977
 ,1.12621495,-0.27656464\H,0,-1.22623509,-1.15830032,-0.32390586\\Versi
 on=ES64L-G16RevA.03\State=1-A\HF=-78.5863389\S2=0.\S2-1=0.\S2A=0.\RMSD
 =8.690e-09\Dipole=-0.0729943,0.0097179,0.0755073\Quadrupole=-0.4075457
 ,0.7413075,-0.3337618,-0.0326055,1.4549117,0.1769257\PG=C01 [X(C2H4)]\
 \@


 LOVE IS BLIND, THAT'S WHY ALL THE WORLD LOVES A LOUVER.
 Job cpu time:       0 days  0 hours  0 minutes 12.6 seconds.
 Elapsed time:       0 days  0 hours  0 minutes  3.3 seconds.
 File lengths (MBytes):  RWF=      6 Int=      0 D2E=      0 Chk=      1 Scr=      1
 Normal termination of Gaussian 16 at Thu Oct 12 15:18:09 2023.
