 Entering Gaussian System, Link 0=g16
 Initial command:
 /share/apps/gaussian/g16/l1.exe "/tmp/58285.mgr/Gau-17040.inp" -scrdir="/tmp/58285.mgr/"
 Entering Link 1 = /share/apps/gaussian/g16/l1.exe PID=     17044.
  
 Copyright (c) 1988,1990,1992,1993,1995,1998,2003,2009,2016,
            Gaussian, Inc.  All Rights Reserved.
  
 This is part of the Gaussian(R) 16 program.  It is based on
 the Gaussian(R) 09 system (copyright 2009, Gaussian, Inc.),
 the Gaussian(R) 03 system (copyright 2003, Gaussian, Inc.),
 the Gaussian(R) 98 system (copyright 1998, Gaussian, Inc.),
 the Gaussian(R) 94 system (copyright 1995, Gaussian, Inc.),
 the Gaussian 92(TM) system (copyright 1992, Gaussian, Inc.),
 the Gaussian 90(TM) system (copyright 1990, Gaussian, Inc.),
 the Gaussian 88(TM) system (copyright 1988, Gaussian, Inc.),
 the Gaussian 86(TM) system (copyright 1986, Carnegie Mellon
 University), and the Gaussian 82(TM) system (copyright 1983,
 Carnegie Mellon University). Gaussian is a federally registered
 trademark of Gaussian, Inc.
  
 This software contains proprietary and confidential information,
 including trade secrets, belonging to Gaussian, Inc.
  
 This software is provided under written license and may be
 used, copied, transmitted, or stored only in accord with that
 written license.
  
 The following legend is applicable only to US Government
 contracts under FAR:
  
                    RESTRICTED RIGHTS LEGEND
  
 Use, reproduction and disclosure by the US Government is
 subject to restrictions as set forth in subparagraphs (a)
 and (c) of the Commercial Computer Software - Restricted
 Rights clause in FAR 52.227-19.
  
 Gaussian, Inc.
 340 Quinnipiac St., Bldg. 40, Wallingford CT 06492
  
  
 ---------------------------------------------------------------
 Warning -- This program may not be used in any manner that
 competes with the business of Gaussian, Inc. or will provide
 assistance to any competitor of Gaussian, Inc.  The licensee
 of this program is prohibited from giving any competitor of
 Gaussian, Inc. access to this program.  By using this program,
 the user acknowledges that Gaussian, Inc. is engaged in the
 business of creating and licensing software in the field of
 computational chemistry and represents and warrants to the
 licensee that it is not a competitor of Gaussian, Inc. and that
 it will not use this program in any manner prohibited above.
 ---------------------------------------------------------------
  

 Cite this work as:
 Gaussian 16, Revision A.03,
 M. J. Frisch, G. W. Trucks, H. B. Schlegel, G. E. Scuseria, 
 M. A. Robb, J. R. Cheeseman, G. Scalmani, V. Barone, 
 G. A. Petersson, H. Nakatsuji, X. Li, M. Caricato, A. V. Marenich, 
 J. Bloino, B. G. Janesko, R. Gomperts, B. Mennucci, H. P. Hratchian, 
 J. V. Ortiz, A. F. Izmaylov, J. L. Sonnenberg, D. Williams-Young, 
 F. Ding, F. Lipparini, F. Egidi, J. Goings, B. Peng, A. Petrone, 
 T. Henderson, D. Ranasinghe, V. G. Zakrzewski, J. Gao, N. Rega, 
 G. Zheng, W. Liang, M. Hada, M. Ehara, K. Toyota, R. Fukuda, 
 J. Hasegawa, M. Ishida, T. Nakajima, Y. Honda, O. Kitao, H. Nakai, 
 T. Vreven, K. Throssell, J. A. Montgomery, Jr., J. E. Peralta, 
 F. Ogliaro, M. J. Bearpark, J. J. Heyd, E. N. Brothers, K. N. Kudin, 
 V. N. Staroverov, T. A. Keith, R. Kobayashi, J. Normand, 
 K. Raghavachari, A. P. Rendell, J. C. Burant, S. S. Iyengar, 
 J. Tomasi, M. Cossi, J. M. Millam, M. Klene, C. Adamo, R. Cammi, 
 J. W. Ochterski, R. L. Martin, K. Morokuma, O. Farkas, 
 J. B. Foresman, and D. J. Fox, Gaussian, Inc., Wallingford CT, 2016.
 
 ******************************************
 Gaussian 16:  ES64L-G16RevA.03 25-Dec-2016
                12-Oct-2023 
 ******************************************
 %nprocshared=4
 Will use up to    4 processors via shared memory.
 %mem=4GB
 ------------------
 # ub3lyp/6-31+g(d)
 ------------------
 1/38=1,172=1/1;
 2/12=2,17=6,18=5,40=1/2;
 3/5=1,6=6,7=11,11=2,25=1,30=1,74=-5,116=2/1,2,3;
 4//1;
 5/5=2,38=5/2;
 6/7=2,8=2,9=2,10=2,28=1/1;
 99/5=1,9=1/99;
 ----------------------
 tmpdir/M1_conf_0_0.gjf
 ----------------------
 Symbolic Z-matrix:
 Charge =  0 Multiplicity = 1
 C                    -1.01215   1.30948  -0.00312 
 H                    -1.02771   2.3988   -0.03739 
 H                    -0.01532   0.87254  -0.00676 
 H                    -1.6729    0.86174   0.74467 
 H                    -1.68073   0.82901  -0.72001 
 
                          Input orientation:                          
 ---------------------------------------------------------------------
 Center     Atomic      Atomic             Coordinates (Angstroms)
 Number     Number       Type             X           Y           Z
 ---------------------------------------------------------------------
      1          6           0       -1.012154    1.309484   -0.003118
      2          1           0       -1.027706    2.398796   -0.037395
      3          1           0       -0.015321    0.872536   -0.006758
      4          1           0       -1.672899    0.861743    0.744671
      5          1           0       -1.680727    0.829009   -0.720011
 ---------------------------------------------------------------------
                    Distance matrix (angstroms):
                    1          2          3          4          5
     1  C    0.000000
     2  H    1.089963   0.000000
     3  H    1.088399   1.831757   0.000000
     4  H    1.093729   1.841313   1.819979   0.000000
     5  H    1.091688   1.832112   1.812237   1.465069   0.000000
 Stoichiometry    CH4
 Framework group  C1[X(CH4)]
 Deg. of freedom     9
 Full point group                 C1      NOp   1
 Largest Abelian subgroup         C1      NOp   1
 Largest concise Abelian subgroup C1      NOp   1
                         Standard orientation:                         
 ---------------------------------------------------------------------
 Center     Atomic      Atomic             Coordinates (Angstroms)
 Number     Number       Type             X           Y           Z
 ---------------------------------------------------------------------
      1          6           0        0.044357    0.000659   -0.002175
      2          1           0        0.721675   -0.853307   -0.003170
      3          1           0        0.540386    0.969455   -0.000752
      4          1           0       -0.775191   -0.059403   -0.723963
      5          1           0       -0.753014   -0.060698    0.740938
 ---------------------------------------------------------------------
 Rotational constants (GHZ):         182.4560849         163.1776493         136.4471353
 Standard basis: 6-31+G(d) (6D, 7F)
 There are    27 symmetry adapted cartesian basis functions of A   symmetry.
 There are    27 symmetry adapted basis functions of A   symmetry.
    27 basis functions,    48 primitive gaussians,    27 cartesian basis functions
     5 alpha electrons        5 beta electrons
       nuclear repulsion energy        13.4506321521 Hartrees.
 NAtoms=    5 NActive=    5 NUniq=    5 SFac= 1.00D+00 NAtFMM=   60 NAOKFM=F Big=F
 Integral buffers will be    131072 words long.
 Raffenetti 2 integral format.
 Two-electron integral symmetry is turned on.
 One-electron integrals computed using PRISM.
 NBasis=    27 RedAO= T EigKep=  1.36D-02  NBF=    27
 NBsUse=    27 1.00D-06 EigRej= -1.00D+00 NBFU=    27
 ExpMin= 4.38D-02 ExpMax= 3.05D+03 ExpMxC= 4.57D+02 IAcc=3 IRadAn=         5 AccDes= 0.00D+00
 Harris functional with IExCor=  402 and IRadAn=       5 diagonalized for initial guess.
 HarFok:  IExCor=  402 AccDes= 0.00D+00 IRadAn=         5 IDoV= 1 UseB2=F ITyADJ=14
 ICtDFT=  3500011 ScaDFX=  1.000000  1.000000  1.000000  1.000000
 FoFCou: FMM=F IPFlag=           0 FMFlag=      100000 FMFlg1=           0
         NFxFlg=           0 DoJE=T BraDBF=F KetDBF=T FulRan=T
         wScrn=  0.000000 ICntrl=       500 IOpCl=  0 I1Cent=   200000004 NGrid=           0
         NMat0=    1 NMatS0=      1 NMatT0=    0 NMatD0=    1 NMtDS0=    0 NMtDT0=    0
 Petite list used in FoFCou.
 Initial guess <Sx>= 0.0000 <Sy>= 0.0000 <Sz>= 0.0000 <S**2>= 0.0000 S= 0.0000
 Keep R1 and R2 ints in memory in canonical form, NReq=3592427.
 Requested convergence on RMS density matrix=1.00D-08 within 128 cycles.
 Requested convergence on MAX density matrix=1.00D-06.
 Requested convergence on             energy=1.00D-06.
 No special actions if energy rises.
 SCF Done:  E(UB3LYP) =  -40.5040713855     A.U. after    8 cycles
            NFock=  8  Conv=0.55D-08     -V/T= 2.0108
 <Sx>= 0.0000 <Sy>= 0.0000 <Sz>= 0.0000 <S**2>= 0.0000 S= 0.0000
 <L.S>= 0.000000000000E+00
 Annihilation of the first spin contaminant:
 S**2 before annihilation     0.0000,   after    -0.0000

 **********************************************************************

            Population analysis using the SCF density.

 **********************************************************************

 Orbital symmetries:
 Alpha Orbitals:
       Occupied  (A) (A) (A) (A) (A)
       Virtual   (A) (A) (A) (A) (A) (A) (A) (A) (A) (A) (A) (A)
                 (A) (A) (A) (A) (A) (A) (A) (A) (A) (A)
 Beta  Orbitals:
       Occupied  (A) (A) (A) (A) (A)
       Virtual   (A) (A) (A) (A) (A) (A) (A) (A) (A) (A) (A) (A)
                 (A) (A) (A) (A) (A) (A) (A) (A) (A) (A)
 The electronic state is 1-A.
 Alpha  occ. eigenvalues --  -10.17236  -0.70259  -0.43046  -0.40391  -0.34735
 Alpha virt. eigenvalues --    0.01608   0.05772   0.05992   0.06635   0.15990
 Alpha virt. eigenvalues --    0.18287   0.19654   0.26133   0.64308   0.64729
 Alpha virt. eigenvalues --    0.65337   0.87400   0.94390   0.95207   1.05205
 Alpha virt. eigenvalues --    1.09379   1.66129   1.73533   2.22922   2.24459
 Alpha virt. eigenvalues --    2.28396   4.17788
  Beta  occ. eigenvalues --  -10.17236  -0.70259  -0.43046  -0.40391  -0.34735
  Beta virt. eigenvalues --    0.01608   0.05772   0.05992   0.06635   0.15990
  Beta virt. eigenvalues --    0.18287   0.19654   0.26133   0.64308   0.64729
  Beta virt. eigenvalues --    0.65337   0.87400   0.94390   0.95207   1.05205
  Beta virt. eigenvalues --    1.09379   1.66129   1.73533   2.22922   2.24459
  Beta virt. eigenvalues --    2.28396   4.17788
          Condensed to atoms (all electrons):
               1          2          3          4          5
     1  C    5.279970   0.387093   0.386740   0.367469   0.366955
     2  H    0.387093   0.468881  -0.022166  -0.018952  -0.019638
     3  H    0.386740  -0.022166   0.472918  -0.020800  -0.021343
     4  H    0.367469  -0.018952  -0.020800   0.544016  -0.061038
     5  H    0.366955  -0.019638  -0.021343  -0.061038   0.545572
          Atomic-Atomic Spin Densities.
               1          2          3          4          5
     1  C   -0.000000   0.000000   0.000000  -0.000000   0.000000
     2  H    0.000000   0.000000   0.000000  -0.000000   0.000000
     3  H    0.000000   0.000000   0.000000   0.000000   0.000000
     4  H   -0.000000  -0.000000   0.000000   0.000000  -0.000000
     5  H    0.000000   0.000000   0.000000  -0.000000   0.000000
 Mulliken charges and spin densities:
               1          2
     1  C   -0.788228  -0.000000
     2  H    0.204782   0.000000
     3  H    0.204650   0.000000
     4  H    0.189305   0.000000
     5  H    0.189491   0.000000
 Sum of Mulliken charges =   0.00000   0.00000
 Mulliken charges and spin densities with hydrogens summed into heavy atoms:
               1          2
     1  C    0.000000   0.000000
 Electronic spatial extent (au):  <R**2>=             36.0150
 Charge=              0.0000 electrons
 Dipole moment (field-independent basis, Debye):
    X=             -0.2110    Y=             -0.0091    Z=              0.0144  Tot=              0.2116
 Quadrupole moment (field-independent basis, Debye-Ang):
   XX=             -7.8199   YY=             -8.3068   ZZ=             -9.5430
   XY=             -0.0037   XZ=             -0.0035   YZ=              0.0002
 Traceless Quadrupole moment (field-independent basis, Debye-Ang):
   XX=              0.7367   YY=              0.2498   ZZ=             -0.9864
   XY=             -0.0037   XZ=             -0.0035   YZ=              0.0002
 Octapole moment (field-independent basis, Debye-Ang**2):
  XXX=             -0.6713  YYY=              0.2261  ZZZ=              0.0343  XYY=              0.7769
  XXY=             -0.2146  XXZ=              0.0012  XZZ=             -0.4107  YZZ=             -0.0211
  YYZ=              0.0100  XYZ=              0.0013
 Hexadecapole moment (field-independent basis, Debye-Ang**3):
 XXXX=            -17.6361 YYYY=            -16.5106 ZZZZ=            -17.2993 XXXY=             -0.1336
 XXXZ=              0.0118 YYYX=              0.0425 YYYZ=              0.0018 ZZZX=             -0.0210
 ZZZY=             -0.0020 XXYY=             -5.4242 XXZZ=             -5.5326 YYZZ=             -5.9777
 XXYZ=              0.0012 YYXZ=             -0.0032 ZZXY=              0.0432
 N-N= 1.345063215205D+01 E-N=-1.198536538878D+02  KE= 4.007143684604D+01
                          Isotropic Fermi Contact Couplings
        Atom                 a.u.       MegaHertz       Gauss      10(-4) cm-1
     1  C(13)              0.00000       0.00000       0.00000       0.00000
     2  H(1)               0.00000       0.00000       0.00000       0.00000
     3  H(1)              -0.00000      -0.00000      -0.00000      -0.00000
     4  H(1)               0.00000       0.00000       0.00000       0.00000
     5  H(1)               0.00000       0.00000       0.00000       0.00000
 --------------------------------------------------------
       Center         ----  Spin Dipole Couplings  ----
                      3XX-RR        3YY-RR        3ZZ-RR
 --------------------------------------------------------
     1   Atom        0.000000      0.000000      0.000000
     2   Atom        0.000000      0.000000      0.000000
     3   Atom        0.000000      0.000000      0.000000
     4   Atom        0.000000      0.000000      0.000000
     5   Atom        0.000000      0.000000      0.000000
 --------------------------------------------------------
                        XY            XZ            YZ
 --------------------------------------------------------
     1   Atom        0.000000      0.000000      0.000000
     2   Atom        0.000000      0.000000      0.000000
     3   Atom        0.000000      0.000000      0.000000
     4   Atom        0.000000      0.000000      0.000000
     5   Atom        0.000000      0.000000      0.000000
 --------------------------------------------------------


 ---------------------------------------------------------------------------------
              Anisotropic Spin Dipole Couplings in Principal Axis System
 ---------------------------------------------------------------------------------

       Atom             a.u.   MegaHertz   Gauss  10(-4) cm-1        Axes

              Baa     0.0000     0.000     0.000     0.000  1.0000  0.0000  0.0000
     1 C(13)  Bbb     0.0000     0.000     0.000     0.000 -0.0000  1.0000  0.0000
              Bcc     0.0000     0.000     0.000     0.000  0.0000  0.0000  1.0000
 
              Baa     0.0000     0.000     0.000     0.000  1.0000  0.0000  0.0000
     2 H(1)   Bbb     0.0000     0.000     0.000     0.000 -0.0000  1.0000  0.0000
              Bcc     0.0000     0.000     0.000     0.000  0.0000  0.0000  1.0000
 
              Baa     0.0000     0.000     0.000     0.000  1.0000  0.0000  0.0000
     3 H(1)   Bbb     0.0000     0.000     0.000     0.000 -0.0000  1.0000  0.0000
              Bcc     0.0000     0.000     0.000     0.000  0.0000  0.0000  1.0000
 
              Baa     0.0000     0.000     0.000     0.000  1.0000  0.0000  0.0000
     4 H(1)   Bbb     0.0000     0.000     0.000     0.000 -0.0000  1.0000  0.0000
              Bcc     0.0000     0.000     0.000     0.000  0.0000  0.0000  1.0000
 
              Baa     0.0000     0.000     0.000     0.000  1.0000  0.0000  0.0000
     5 H(1)   Bbb     0.0000     0.000     0.000     0.000 -0.0000  1.0000  0.0000
              Bcc     0.0000     0.000     0.000     0.000  0.0000  0.0000  1.0000
 

 ---------------------------------------------------------------------------------

 1\1\GINC-NODE33\SP\UB3LYP\6-31+G(d)\C1H4\YANZ\12-Oct-2023\0\\# ub3lyp/
 6-31+g(d)\\tmpdir/M1_conf_0_0.gjf\\0,1\C,0,-1.01215379,1.30948377,-0.0
 0311779\H,0,-1.02770578,2.39879619,-0.03739471\H,0,-0.01532128,0.87253
 568,-0.00675805\H,0,-1.67289859,0.86174324,0.74467141\H,0,-1.68072727,
 0.82900927,-0.72001134\\Version=ES64L-G16RevA.03\State=1-A\HF=-40.5040
 714\S2=0.\S2-1=0.\S2A=0.\RMSD=5.494e-09\Dipole=-0.0666447,-0.0498353,-
 0.0029479\Quadrupole=0.3998838,0.3320586,-0.7319425,0.1772719,-0.02257
 87,-0.0358979\PG=C01 [X(C1H4)]\\@


 IT IS THE BEHAVIOR AND DISTRIBUTION OF THE ELECTRONS 
 AROUND THE NUCLEUS THAT GIVES THE FUNDAMENTAL 
 CHARACTER OF AN ATOM:  IT MUST BE THE SAME FOR MOLECULES.

                               -- C. A. COULSON, 1951
 Job cpu time:       0 days  0 hours  0 minutes  8.3 seconds.
 Elapsed time:       0 days  0 hours  0 minutes  2.3 seconds.
 File lengths (MBytes):  RWF=      6 Int=      0 D2E=      0 Chk=      1 Scr=      1
 Normal termination of Gaussian 16 at Thu Oct 12 15:18:05 2023.
