 Entering Gaussian System, Link 0=g16
 Initial command:
 /share/apps/gaussian/g16/l1.exe "/tmp/58285.mgr/Gau-16824.inp" -scrdir="/tmp/58285.mgr/"
 Entering Link 1 = /share/apps/gaussian/g16/l1.exe PID=     16827.
  
 Copyright (c) 1988,1990,1992,1993,1995,1998,2003,2009,2016,
            Gaussian, Inc.  All Rights Reserved.
  
 This is part of the Gaussian(R) 16 program.  It is based on
 the Gaussian(R) 09 system (copyright 2009, Gaussian, Inc.),
 the Gaussian(R) 03 system (copyright 2003, Gaussian, Inc.),
 the Gaussian(R) 98 system (copyright 1998, Gaussian, Inc.),
 the Gaussian(R) 94 system (copyright 1995, Gaussian, Inc.),
 the Gaussian 92(TM) system (copyright 1992, Gaussian, Inc.),
 the Gaussian 90(TM) system (copyright 1990, Gaussian, Inc.),
 the Gaussian 88(TM) system (copyright 1988, Gaussian, Inc.),
 the Gaussian 86(TM) system (copyright 1986, Carnegie Mellon
 University), and the Gaussian 82(TM) system (copyright 1983,
 Carnegie Mellon University). Gaussian is a federally registered
 trademark of Gaussian, Inc.
  
 This software contains proprietary and confidential information,
 including trade secrets, belonging to Gaussian, Inc.
  
 This software is provided under written license and may be
 used, copied, transmitted, or stored only in accord with that
 written license.
  
 The following legend is applicable only to US Government
 contracts under FAR:
  
                    RESTRICTED RIGHTS LEGEND
  
 Use, reproduction and disclosure by the US Government is
 subject to restrictions as set forth in subparagraphs (a)
 and (c) of the Commercial Computer Software - Restricted
 Rights clause in FAR 52.227-19.
  
 Gaussian, Inc.
 340 Quinnipiac St., Bldg. 40, Wallingford CT 06492
  
  
 ---------------------------------------------------------------
 Warning -- This program may not be used in any manner that
 competes with the business of Gaussian, Inc. or will provide
 assistance to any competitor of Gaussian, Inc.  The licensee
 of this program is prohibited from giving any competitor of
 Gaussian, Inc. access to this program.  By using this program,
 the user acknowledges that Gaussian, Inc. is engaged in the
 business of creating and licensing software in the field of
 computational chemistry and represents and warrants to the
 licensee that it is not a competitor of Gaussian, Inc. and that
 it will not use this program in any manner prohibited above.
 ---------------------------------------------------------------
  

 Cite this work as:
 Gaussian 16, Revision A.03,
 M. J. Frisch, G. W. Trucks, H. B. Schlegel, G. E. Scuseria, 
 M. A. Robb, J. R. Cheeseman, G. Scalmani, V. Barone, 
 G. A. Petersson, H. Nakatsuji, X. Li, M. Caricato, A. V. Marenich, 
 J. Bloino, B. G. Janesko, R. Gomperts, B. Mennucci, H. P. Hratchian, 
 J. V. Ortiz, A. F. Izmaylov, J. L. Sonnenberg, D. Williams-Young, 
 F. Ding, F. Lipparini, F. Egidi, J. Goings, B. Peng, A. Petrone, 
 T. Henderson, D. Ranasinghe, V. G. Zakrzewski, J. Gao, N. Rega, 
 G. Zheng, W. Liang, M. Hada, M. Ehara, K. Toyota, R. Fukuda, 
 J. Hasegawa, M. Ishida, T. Nakajima, Y. Honda, O. Kitao, H. Nakai, 
 T. Vreven, K. Throssell, J. A. Montgomery, Jr., J. E. Peralta, 
 F. Ogliaro, M. J. Bearpark, J. J. Heyd, E. N. Brothers, K. N. Kudin, 
 V. N. Staroverov, T. A. Keith, R. Kobayashi, J. Normand, 
 K. Raghavachari, A. P. Rendell, J. C. Burant, S. S. Iyengar, 
 J. Tomasi, M. Cossi, J. M. Millam, M. Klene, C. Adamo, R. Cammi, 
 J. W. Ochterski, R. L. Martin, K. Morokuma, O. Farkas, 
 J. B. Foresman, and D. J. Fox, Gaussian, Inc., Wallingford CT, 2016.
 
 ******************************************
 Gaussian 16:  ES64L-G16RevA.03 25-Dec-2016
                12-Oct-2023 
 ******************************************
 %nprocshared=4
 Will use up to    4 processors via shared memory.
 %mem=4GB
 ------------------
 # ub3lyp/6-31+g(d)
 ------------------
 1/38=1,172=1/1;
 2/12=2,17=6,18=5,40=1/2;
 3/5=1,6=6,7=11,11=2,25=1,30=1,74=-5,116=2/1,2,3;
 4//1;
 5/5=2,38=5/2;
 6/7=2,8=2,9=2,10=2,28=1/1;
 99/5=1,9=1/99;
 -------------------
 tmpdir/M1_ref_2.gjf
 -------------------
 Symbolic Z-matrix:
 Charge =  0 Multiplicity = 2
 C                    -1.56036  -0.78283   1.30257 
 H                    -1.10669  -1.20451   2.20001 
 H                    -1.17868  -1.17053   0.33885 
 H                    -1.73679   0.27898   1.24464 
 
                          Input orientation:                          
 ---------------------------------------------------------------------
 Center     Atomic      Atomic             Coordinates (Angstroms)
 Number     Number       Type             X           Y           Z
 ---------------------------------------------------------------------
      1          6           0       -1.560365   -0.782829    1.302571
      2          1           0       -1.106686   -1.204513    2.200013
      3          1           0       -1.178683   -1.170534    0.338845
      4          1           0       -1.736791    0.278977    1.244636
 ---------------------------------------------------------------------
                    Distance matrix (angstroms):
                    1          2          3          4
     1  C    0.000000
     2  H    1.090433   0.000000
     3  H    1.106690   1.862870   0.000000
     4  H    1.077922   1.873638   1.798061   0.000000
 Stoichiometry    CH3(2)
 Framework group  C1[X(CH3)]
 Deg. of freedom     6
 Full point group                 C1      NOp   1
 Largest Abelian subgroup         C1      NOp   1
 Largest concise Abelian subgroup C1      NOp   1
                         Standard orientation:                         
 ---------------------------------------------------------------------
 Center     Atomic      Atomic             Coordinates (Angstroms)
 Number     Number       Type             X           Y           Z
 ---------------------------------------------------------------------
      1          6           0        0.009332   -0.008204   -0.078633
      2          1           0        1.071378   -0.045237    0.165764
      3          1           0       -0.506747    0.944436    0.146983
      4          1           0       -0.620624   -0.849975    0.159050
 ---------------------------------------------------------------------
 Rotational constants (GHZ):         286.4426002         260.6077473         147.1507052
 Standard basis: 6-31+G(d) (6D, 7F)
 There are    25 symmetry adapted cartesian basis functions of A   symmetry.
 There are    25 symmetry adapted basis functions of A   symmetry.
    25 basis functions,    44 primitive gaussians,    25 cartesian basis functions
     5 alpha electrons        4 beta electrons
       nuclear repulsion energy         9.5870621980 Hartrees.
 NAtoms=    4 NActive=    4 NUniq=    4 SFac= 1.00D+00 NAtFMM=   60 NAOKFM=F Big=F
 Integral buffers will be    131072 words long.
 Raffenetti 2 integral format.
 Two-electron integral symmetry is turned on.
 One-electron integrals computed using PRISM.
 NBasis=    25 RedAO= T EigKep=  2.34D-02  NBF=    25
 NBsUse=    25 1.00D-06 EigRej= -1.00D+00 NBFU=    25
 ExpMin= 4.38D-02 ExpMax= 3.05D+03 ExpMxC= 4.57D+02 IAcc=3 IRadAn=         5 AccDes= 0.00D+00
 Harris functional with IExCor=  402 and IRadAn=       5 diagonalized for initial guess.
 HarFok:  IExCor=  402 AccDes= 0.00D+00 IRadAn=         5 IDoV= 1 UseB2=F ITyADJ=14
 ICtDFT=  3500011 ScaDFX=  1.000000  1.000000  1.000000  1.000000
 FoFCou: FMM=F IPFlag=           0 FMFlag=      100000 FMFlg1=           0
         NFxFlg=           0 DoJE=T BraDBF=F KetDBF=T FulRan=T
         wScrn=  0.000000 ICntrl=       500 IOpCl=  0 I1Cent=   200000004 NGrid=           0
         NMat0=    1 NMatS0=      1 NMatT0=    0 NMatD0=    1 NMtDS0=    0 NMtDT0=    0
 Petite list used in FoFCou.
 Initial guess <Sx>= 0.0000 <Sy>= 0.0000 <Sz>= 0.5000 <S**2>= 0.7500 S= 0.5000
 Keep R1 and R2 ints in memory in canonical form, NReq=3554462.
 Requested convergence on RMS density matrix=1.00D-08 within 128 cycles.
 Requested convergence on MAX density matrix=1.00D-06.
 Requested convergence on             energy=1.00D-06.
 No special actions if energy rises.
 SCF Done:  E(UB3LYP) =  -39.8382984612     A.U. after   10 cycles
            NFock= 10  Conv=0.96D-08     -V/T= 2.0112
 <Sx>= 0.0000 <Sy>= 0.0000 <Sz>= 0.5000 <S**2>= 0.7529 S= 0.5014
 <L.S>= 0.000000000000E+00
 Annihilation of the first spin contaminant:
 S**2 before annihilation     0.7529,   after     0.7500

 **********************************************************************

            Population analysis using the SCF density.

 **********************************************************************

 Orbital symmetries:
 Alpha Orbitals:
       Occupied  (A) (A) (A) (A) (A)
       Virtual   (A) (A) (A) (A) (A) (A) (A) (A) (A) (A) (A) (A)
                 (A) (A) (A) (A) (A) (A) (A) (A)
 Beta  Orbitals:
       Occupied  (A) (A) (A) (A)
       Virtual   (A) (A) (A) (A) (A) (A) (A) (A) (A) (A) (A) (A)
                 (A) (A) (A) (A) (A) (A) (A) (A) (A)
 The electronic state is 2-A.
 Alpha  occ. eigenvalues --  -10.20867  -0.69229  -0.42803  -0.41043  -0.24893
 Alpha virt. eigenvalues --    0.01862   0.05861   0.06068   0.07333   0.17594
 Alpha virt. eigenvalues --    0.19087   0.20849   0.63750   0.64134   0.64689
 Alpha virt. eigenvalues --    0.85156   0.92030   0.95285   0.99741   1.63266
 Alpha virt. eigenvalues --    1.63930   1.93636   2.20450   2.24691   4.05951
  Beta  occ. eigenvalues --  -10.19448  -0.65518  -0.41785  -0.40013
  Beta virt. eigenvalues --   -0.08352   0.02339   0.05866   0.06072   0.09773
  Beta virt. eigenvalues --    0.18406   0.19991   0.22253   0.64761   0.65197
  Beta virt. eigenvalues --    0.71404   0.87599   0.92645   0.96081   1.01714
  Beta virt. eigenvalues --    1.68991   1.69974   2.02108   2.22506   2.26595
  Beta virt. eigenvalues --    4.09640
          Condensed to atoms (all electrons):
               1          2          3          4
     1  C    5.466497   0.372894   0.368800   0.371297
     2  H    0.372894   0.484678  -0.027741  -0.025726
     3  H    0.368800  -0.027741   0.504174  -0.033298
     4  H    0.371297  -0.025726  -0.033298   0.492199
          Atomic-Atomic Spin Densities.
               1          2          3          4
     1  C    1.165868  -0.013004  -0.012735  -0.013287
     2  H   -0.013004  -0.031721   0.001762   0.001660
     3  H   -0.012735   0.001762  -0.034353   0.002060
     4  H   -0.013287   0.001660   0.002060  -0.032704
 Mulliken charges and spin densities:
               1          2
     1  C   -0.579489   1.126841
     2  H    0.195896  -0.041304
     3  H    0.188065  -0.043266
     4  H    0.195528  -0.042271
 Sum of Mulliken charges =  -0.00000   1.00000
 Mulliken charges and spin densities with hydrogens summed into heavy atoms:
               1          2
     1  C   -0.000000   1.000000
 Electronic spatial extent (au):  <R**2>=             30.4723
 Charge=             -0.0000 electrons
 Dipole moment (field-independent basis, Debye):
    X=             -0.0271    Y=              0.0059    Z=              0.5321  Tot=              0.5329
 Quadrupole moment (field-independent basis, Debye-Ang):
   XX=             -7.3006   YY=             -7.6327   ZZ=             -9.1521
   XY=              0.0400   XZ=              0.0037   YZ=             -0.0067
 Traceless Quadrupole moment (field-independent basis, Debye-Ang):
   XX=              0.7279   YY=              0.3957   ZZ=             -1.1236
   XY=              0.0400   XZ=              0.0037   YZ=             -0.0067
 Octapole moment (field-independent basis, Debye-Ang**2):
  XXX=              0.6859  YYY=              0.1182  ZZZ=              0.9157  XYY=             -0.7343
  XXY=             -0.1326  XXZ=              0.5437  XZZ=             -0.0214  YZZ=             -0.0150
  YYZ=              0.4873  XYZ=              0.0060
 Hexadecapole moment (field-independent basis, Debye-Ang**3):
 XXXX=            -15.9119 YYYY=            -16.0446 ZZZZ=            -13.7228 XXXY=              0.1299
 XXXZ=              0.2173 YYYX=              0.0344 YYYZ=              0.0073 ZZZX=              0.0168
 ZZZY=             -0.0335 XXYY=             -5.2844 XXZZ=             -5.1882 YYZZ=             -5.1569
 XXYZ=             -0.0446 YYXZ=             -0.1873 ZZXY=              0.0307
 N-N= 9.587062198020D+00 E-N=-1.108203449282D+02  KE= 3.939677024020D+01
                          Isotropic Fermi Contact Couplings
        Atom                 a.u.       MegaHertz       Gauss      10(-4) cm-1
     1  C(13)              0.20490     230.35236      82.19545      76.83728
     2  H(1)              -0.00993     -44.40095     -15.84336     -14.81056
     3  H(1)              -0.01057     -47.25734     -16.86259     -15.76335
     4  H(1)              -0.01015     -45.35239     -16.18286     -15.12793
 --------------------------------------------------------
       Center         ----  Spin Dipole Couplings  ----
                      3XX-RR        3YY-RR        3ZZ-RR
 --------------------------------------------------------
     1   Atom       -0.508503     -0.503618      1.012121
     2   Atom        0.067679     -0.064886     -0.002793
     3   Atom       -0.033702      0.037674     -0.003972
     4   Atom       -0.018022      0.019940     -0.001918
 --------------------------------------------------------
                        XY            XZ            YZ
 --------------------------------------------------------
     1   Atom       -0.001446     -0.008982      0.011734
     2   Atom       -0.004582      0.020682     -0.000149
     3   Atom       -0.054895     -0.009701      0.017512
     4   Atom        0.065031     -0.013288     -0.016382
 --------------------------------------------------------


 ---------------------------------------------------------------------------------
              Anisotropic Spin Dipole Couplings in Principal Axis System
 ---------------------------------------------------------------------------------

       Atom             a.u.   MegaHertz   Gauss  10(-4) cm-1        Axes

              Baa    -0.5089   -68.292   -24.368   -22.780  0.9668  0.2555  0.0037
     1 C(13)  Bbb    -0.5033   -67.544   -24.101   -22.530 -0.2554  0.9668 -0.0090
              Bcc     1.0123   135.836    48.470    45.310 -0.0059  0.0077  1.0000
 
              Baa    -0.0650   -34.707   -12.384   -11.577  0.0360  0.9993 -0.0096
     2 H(1)   Bbb    -0.0084    -4.479    -1.598    -1.494 -0.2613  0.0186  0.9651
              Bcc     0.0734    39.186    13.983    13.071  0.9646 -0.0322  0.2617
 
              Baa    -0.0635   -33.875   -12.088   -11.300  0.8792  0.4765  0.0031
     3 H(1)   Bbb    -0.0092    -4.908    -1.751    -1.637  0.1178 -0.2236  0.9676
              Bcc     0.0727    38.784    13.839    12.937 -0.4618  0.8503  0.2527
 
              Baa    -0.0668   -35.639   -12.717   -11.888  0.8012 -0.5982  0.0130
     4 H(1)   Bbb    -0.0077    -4.119    -1.470    -1.374  0.1490  0.2206  0.9639
              Bcc     0.0745    39.758    14.187    13.262  0.5795  0.7704 -0.2659
 

 ---------------------------------------------------------------------------------

 1\1\GINC-NODE33\SP\UB3LYP\6-31+G(d)\C1H3(2)\YANZ\12-Oct-2023\0\\# ub3l
 yp/6-31+g(d)\\tmpdir/M1_ref_2.gjf\\0,2\C,0,-1.56036485,-0.78282937,1.3
 0257086\H,0,-1.10668637,-1.20451272,2.20001314\H,0,-1.17868332,-1.1705
 3419,0.33884542\H,0,-1.7367911,0.27897731,1.24463587\\Version=ES64L-G1
 6RevA.03\State=2-A\HF=-39.8382985\S2=0.752895\S2-1=0.\S2A=0.750005\RMS
 D=9.642e-09\Dipole=0.1922052,0.0825179,-0.0140813\Quadrupole=-0.659812
 2,0.2236658,0.4361464,-0.430257,0.0742294,-0.1053951\PG=C01 [X(C1H3)]\
 \@


 THE ONLY TROUBLE WITH A SURE THING IS THE UNCERTAINTY.
     -- FROM A TEABAG (BELONGING TO W.H.?)
 Job cpu time:       0 days  0 hours  0 minutes 23.7 seconds.
 Elapsed time:       0 days  0 hours  0 minutes  7.6 seconds.
 File lengths (MBytes):  RWF=      6 Int=      0 D2E=      0 Chk=      1 Scr=      1
 Normal termination of Gaussian 16 at Thu Oct 12 15:17:40 2023.
