 Entering Gaussian System, Link 0=g16
 Initial command:
 /share/apps/gaussian/g16/l1.exe "/tmp/58285.mgr/Gau-16825.inp" -scrdir="/tmp/58285.mgr/"
 Entering Link 1 = /share/apps/gaussian/g16/l1.exe PID=     16828.
  
 Copyright (c) 1988,1990,1992,1993,1995,1998,2003,2009,2016,
            Gaussian, Inc.  All Rights Reserved.
  
 This is part of the Gaussian(R) 16 program.  It is based on
 the Gaussian(R) 09 system (copyright 2009, Gaussian, Inc.),
 the Gaussian(R) 03 system (copyright 2003, Gaussian, Inc.),
 the Gaussian(R) 98 system (copyright 1998, Gaussian, Inc.),
 the Gaussian(R) 94 system (copyright 1995, Gaussian, Inc.),
 the Gaussian 92(TM) system (copyright 1992, Gaussian, Inc.),
 the Gaussian 90(TM) system (copyright 1990, Gaussian, Inc.),
 the Gaussian 88(TM) system (copyright 1988, Gaussian, Inc.),
 the Gaussian 86(TM) system (copyright 1986, Carnegie Mellon
 University), and the Gaussian 82(TM) system (copyright 1983,
 Carnegie Mellon University). Gaussian is a federally registered
 trademark of Gaussian, Inc.
  
 This software contains proprietary and confidential information,
 including trade secrets, belonging to Gaussian, Inc.
  
 This software is provided under written license and may be
 used, copied, transmitted, or stored only in accord with that
 written license.
  
 The following legend is applicable only to US Government
 contracts under FAR:
  
                    RESTRICTED RIGHTS LEGEND
  
 Use, reproduction and disclosure by the US Government is
 subject to restrictions as set forth in subparagraphs (a)
 and (c) of the Commercial Computer Software - Restricted
 Rights clause in FAR 52.227-19.
  
 Gaussian, Inc.
 340 Quinnipiac St., Bldg. 40, Wallingford CT 06492
  
  
 ---------------------------------------------------------------
 Warning -- This program may not be used in any manner that
 competes with the business of Gaussian, Inc. or will provide
 assistance to any competitor of Gaussian, Inc.  The licensee
 of this program is prohibited from giving any competitor of
 Gaussian, Inc. access to this program.  By using this program,
 the user acknowledges that Gaussian, Inc. is engaged in the
 business of creating and licensing software in the field of
 computational chemistry and represents and warrants to the
 licensee that it is not a competitor of Gaussian, Inc. and that
 it will not use this program in any manner prohibited above.
 ---------------------------------------------------------------
  

 Cite this work as:
 Gaussian 16, Revision A.03,
 M. J. Frisch, G. W. Trucks, H. B. Schlegel, G. E. Scuseria, 
 M. A. Robb, J. R. Cheeseman, G. Scalmani, V. Barone, 
 G. A. Petersson, H. Nakatsuji, X. Li, M. Caricato, A. V. Marenich, 
 J. Bloino, B. G. Janesko, R. Gomperts, B. Mennucci, H. P. Hratchian, 
 J. V. Ortiz, A. F. Izmaylov, J. L. Sonnenberg, D. Williams-Young, 
 F. Ding, F. Lipparini, F. Egidi, J. Goings, B. Peng, A. Petrone, 
 T. Henderson, D. Ranasinghe, V. G. Zakrzewski, J. Gao, N. Rega, 
 G. Zheng, W. Liang, M. Hada, M. Ehara, K. Toyota, R. Fukuda, 
 J. Hasegawa, M. Ishida, T. Nakajima, Y. Honda, O. Kitao, H. Nakai, 
 T. Vreven, K. Throssell, J. A. Montgomery, Jr., J. E. Peralta, 
 F. Ogliaro, M. J. Bearpark, J. J. Heyd, E. N. Brothers, K. N. Kudin, 
 V. N. Staroverov, T. A. Keith, R. Kobayashi, J. Normand, 
 K. Raghavachari, A. P. Rendell, J. C. Burant, S. S. Iyengar, 
 J. Tomasi, M. Cossi, J. M. Millam, M. Klene, C. Adamo, R. Cammi, 
 J. W. Ochterski, R. L. Martin, K. Morokuma, O. Farkas, 
 J. B. Foresman, and D. J. Fox, Gaussian, Inc., Wallingford CT, 2016.
 
 ******************************************
 Gaussian 16:  ES64L-G16RevA.03 25-Dec-2016
                12-Oct-2023 
 ******************************************
 %nprocshared=4
 Will use up to    4 processors via shared memory.
 %mem=4GB
 ------------------
 # ub3lyp/6-31+g(d)
 ------------------
 1/38=1,172=1/1;
 2/12=2,17=6,18=5,40=1/2;
 3/5=1,6=6,7=11,11=2,25=1,30=1,74=-5,116=2/1,2,3;
 4//1;
 5/5=2,38=5/2;
 6/7=2,8=2,9=2,10=2,28=1/1;
 99/5=1,9=1/99;
 -------------------
 tmpdir/M1_ref_1.gjf
 -------------------
 Symbolic Z-matrix:
 Charge =  0 Multiplicity = 2
 C                    -1.80409   0.68399   1.22254 
 H                    -2.80968   1.06898   1.39914 
 H                    -1.27443   1.1172    0.35258 
 H                    -1.62766  -0.37782   1.28047 
 
                          Input orientation:                          
 ---------------------------------------------------------------------
 Center     Atomic      Atomic             Coordinates (Angstroms)
 Number     Number       Type             X           Y           Z
 ---------------------------------------------------------------------
      1          6           0       -1.804086    0.683985    1.222538
      2          1           0       -2.809675    1.068982    1.399139
      3          1           0       -1.274435    1.117198    0.352576
      4          1           0       -1.627660   -0.377821    1.280473
 ---------------------------------------------------------------------
                    Distance matrix (angstroms):
                    1          2          3          4
     1  C    0.000000
     2  H    1.091156   0.000000
     3  H    1.106814   1.858650   0.000000
     4  H    1.077922   1.872027   1.794671   0.000000
 Stoichiometry    CH3(2)
 Framework group  C1[X(CH3)]
 Deg. of freedom     6
 Full point group                 C1      NOp   1
 Largest Abelian subgroup         C1      NOp   1
 Largest concise Abelian subgroup C1      NOp   1
                         Standard orientation:                         
 ---------------------------------------------------------------------
 Center     Atomic      Atomic             Coordinates (Angstroms)
 Number     Number       Type             X           Y           Z
 ---------------------------------------------------------------------
      1          6           0        0.009142   -0.008763   -0.081636
      2          1           0        1.069164   -0.059735    0.172087
      3          1           0       -0.490753    0.950635    0.152238
      4          1           0       -0.633260   -0.838320    0.165493
 ---------------------------------------------------------------------
 Rotational constants (GHZ):         285.7755035         259.8623336         147.6359440
 Standard basis: 6-31+G(d) (6D, 7F)
 There are    25 symmetry adapted cartesian basis functions of A   symmetry.
 There are    25 symmetry adapted basis functions of A   symmetry.
    25 basis functions,    44 primitive gaussians,    25 cartesian basis functions
     5 alpha electrons        4 beta electrons
       nuclear repulsion energy         9.5862566046 Hartrees.
 NAtoms=    4 NActive=    4 NUniq=    4 SFac= 1.00D+00 NAtFMM=   60 NAOKFM=F Big=F
 Integral buffers will be    131072 words long.
 Raffenetti 2 integral format.
 Two-electron integral symmetry is turned on.
 One-electron integrals computed using PRISM.
 NBasis=    25 RedAO= T EigKep=  2.32D-02  NBF=    25
 NBsUse=    25 1.00D-06 EigRej= -1.00D+00 NBFU=    25
 ExpMin= 4.38D-02 ExpMax= 3.05D+03 ExpMxC= 4.57D+02 IAcc=3 IRadAn=         5 AccDes= 0.00D+00
 Harris functional with IExCor=  402 and IRadAn=       5 diagonalized for initial guess.
 HarFok:  IExCor=  402 AccDes= 0.00D+00 IRadAn=         5 IDoV= 1 UseB2=F ITyADJ=14
 ICtDFT=  3500011 ScaDFX=  1.000000  1.000000  1.000000  1.000000
 FoFCou: FMM=F IPFlag=           0 FMFlag=      100000 FMFlg1=           0
         NFxFlg=           0 DoJE=T BraDBF=F KetDBF=T FulRan=T
         wScrn=  0.000000 ICntrl=       500 IOpCl=  0 I1Cent=   200000004 NGrid=           0
         NMat0=    1 NMatS0=      1 NMatT0=    0 NMatD0=    1 NMtDS0=    0 NMtDT0=    0
 Petite list used in FoFCou.
 Initial guess <Sx>= 0.0000 <Sy>= 0.0000 <Sz>= 0.5000 <S**2>= 0.7500 S= 0.5000
 Keep R1 and R2 ints in memory in canonical form, NReq=3554462.
 Requested convergence on RMS density matrix=1.00D-08 within 128 cycles.
 Requested convergence on MAX density matrix=1.00D-06.
 Requested convergence on             energy=1.00D-06.
 No special actions if energy rises.
 SCF Done:  E(UB3LYP) =  -39.8379331559     A.U. after   10 cycles
            NFock= 10  Conv=0.94D-08     -V/T= 2.0112
 <Sx>= 0.0000 <Sy>= 0.0000 <Sz>= 0.5000 <S**2>= 0.7529 S= 0.5014
 <L.S>= 0.000000000000E+00
 Annihilation of the first spin contaminant:
 S**2 before annihilation     0.7529,   after     0.7500

 **********************************************************************

            Population analysis using the SCF density.

 **********************************************************************

 Orbital symmetries:
 Alpha Orbitals:
       Occupied  (A) (A) (A) (A) (A)
       Virtual   (A) (A) (A) (A) (A) (A) (A) (A) (A) (A) (A) (A)
                 (A) (A) (A) (A) (A) (A) (A) (A)
 Beta  Orbitals:
       Occupied  (A) (A) (A) (A)
       Virtual   (A) (A) (A) (A) (A) (A) (A) (A) (A) (A) (A) (A)
                 (A) (A) (A) (A) (A) (A) (A) (A) (A)
 The electronic state is 2-A.
 Alpha  occ. eigenvalues --  -10.20889  -0.69249  -0.42765  -0.40988  -0.24997
 Alpha virt. eigenvalues --    0.01854   0.05868   0.06077   0.07328   0.17535
 Alpha virt. eigenvalues --    0.19072   0.20956   0.63750   0.64133   0.64685
 Alpha virt. eigenvalues --    0.85387   0.91910   0.95170   0.99896   1.63243
 Alpha virt. eigenvalues --    1.63910   1.93137   2.20627   2.24820   4.05999
  Beta  occ. eigenvalues --  -10.19467  -0.65553  -0.41741  -0.39951
  Beta virt. eigenvalues --   -0.08417   0.02325   0.05874   0.06082   0.09761
  Beta virt. eigenvalues --    0.18370   0.19984   0.22347   0.64763   0.65199
  Beta virt. eigenvalues --    0.71392   0.87831   0.92556   0.95990   1.01848
  Beta virt. eigenvalues --    1.68898   1.69901   2.01629   2.22746   2.26778
  Beta virt. eigenvalues --    4.09690
          Condensed to atoms (all electrons):
               1          2          3          4
     1  C    5.466863   0.372536   0.368405   0.370988
     2  H    0.372536   0.485850  -0.028112  -0.025869
     3  H    0.368405  -0.028112   0.505530  -0.033583
     4  H    0.370988  -0.025869  -0.033583   0.493027
          Atomic-Atomic Spin Densities.
               1          2          3          4
     1  C    1.164326  -0.013098  -0.012810  -0.013374
     2  H   -0.013098  -0.031163   0.001864   0.001748
     3  H   -0.012810   0.001864  -0.033956   0.002165
     4  H   -0.013374   0.001748   0.002165  -0.032197
 Mulliken charges and spin densities:
               1          2
     1  C   -0.578792   1.125044
     2  H    0.195595  -0.040650
     3  H    0.187760  -0.042737
     4  H    0.195437  -0.041657
 Sum of Mulliken charges =   0.00000   1.00000
 Mulliken charges and spin densities with hydrogens summed into heavy atoms:
               1          2
     1  C    0.000000   1.000000
 Electronic spatial extent (au):  <R**2>=             30.4685
 Charge=              0.0000 electrons
 Dipole moment (field-independent basis, Debye):
    X=             -0.0278    Y=              0.0078    Z=              0.5483  Tot=              0.5491
 Quadrupole moment (field-independent basis, Debye-Ang):
   XX=             -7.3113   YY=             -7.6471   ZZ=             -9.1340
   XY=              0.0401   XZ=              0.0034   YZ=             -0.0069
 Traceless Quadrupole moment (field-independent basis, Debye-Ang):
   XX=              0.7195   YY=              0.3837   ZZ=             -1.1032
   XY=              0.0401   XZ=              0.0034   YZ=             -0.0069
 Octapole moment (field-independent basis, Debye-Ang**2):
  XXX=              0.6675  YYY=              0.1519  ZZZ=              0.9427  XYY=             -0.7185
  XXY=             -0.1621  XXZ=              0.5614  XZZ=             -0.0224  YZZ=             -0.0137
  YYZ=              0.5022  XYZ=              0.0063
 Hexadecapole moment (field-independent basis, Debye-Ang**3):
 XXXX=            -15.9163 YYYY=            -16.0514 ZZZZ=            -13.7097 XXXY=              0.1335
 XXXZ=              0.2208 YYYX=              0.0310 YYYZ=              0.0158 ZZZX=              0.0159
 ZZZY=             -0.0354 XXYY=             -5.2917 XXZZ=             -5.1779 YYZZ=             -5.1483
 XXYZ=             -0.0554 YYXZ=             -0.1916 ZZXY=              0.0310
 N-N= 9.586256604585D+00 E-N=-1.108181484417D+02  KE= 3.939689886923D+01
                          Isotropic Fermi Contact Couplings
        Atom                 a.u.       MegaHertz       Gauss      10(-4) cm-1
     1  C(13)              0.21200     238.33334      85.04326      79.49944
     2  H(1)              -0.00956     -42.74787     -15.25350     -14.25915
     3  H(1)              -0.01027     -45.92083     -16.38569     -15.31754
     4  H(1)              -0.00980     -43.81681     -15.63493     -14.61571
 --------------------------------------------------------
       Center         ----  Spin Dipole Couplings  ----
                      3XX-RR        3YY-RR        3ZZ-RR
 --------------------------------------------------------
     1   Atom       -0.506662     -0.501663      1.008325
     2   Atom        0.066989     -0.064365     -0.002624
     3   Atom       -0.035335      0.039122     -0.003787
     4   Atom       -0.015892      0.017588     -0.001696
 --------------------------------------------------------
                        XY            XZ            YZ
 --------------------------------------------------------
     1   Atom       -0.001456     -0.008974      0.012839
     2   Atom       -0.006292      0.021344     -0.000410
     3   Atom       -0.053400     -0.009706      0.018248
     4   Atom        0.065217     -0.014016     -0.016698
 --------------------------------------------------------


 ---------------------------------------------------------------------------------
              Anisotropic Spin Dipole Couplings in Principal Axis System
 ---------------------------------------------------------------------------------

       Atom             a.u.   MegaHertz   Gauss  10(-4) cm-1        Axes

              Baa    -0.5071   -68.045   -24.280   -22.697  0.9677  0.2519  0.0036
     1 C(13)  Bbb    -0.5014   -67.285   -24.009   -22.444 -0.2519  0.9677 -0.0097
              Bcc     1.0085   135.329    48.289    45.141 -0.0059  0.0085  0.9999
 
              Baa    -0.0647   -34.506   -12.313   -11.510  0.0494  0.9987 -0.0104
     2 H(1)   Bbb    -0.0086    -4.597    -1.640    -1.534 -0.2698  0.0234  0.9626
              Bcc     0.0733    39.103    13.953    13.043  0.9616 -0.0448  0.2706
 
              Baa    -0.0632   -33.722   -12.033   -11.249  0.8867  0.4622  0.0029
     3 H(1)   Bbb    -0.0094    -5.005    -1.786    -1.669  0.1183 -0.2329  0.9653
              Bcc     0.0726    38.727    13.819    12.918 -0.4469  0.8556  0.2612
 
              Baa    -0.0665   -35.478   -12.660   -11.834  0.7914 -0.6111  0.0137
     4 H(1)   Bbb    -0.0079    -4.226    -1.508    -1.410  0.1578  0.2259  0.9613
              Bcc     0.0744    39.704    14.167    13.244  0.5906  0.7586 -0.2752
 

 ---------------------------------------------------------------------------------

 1\1\GINC-NODE33\SP\UB3LYP\6-31+G(d)\C1H3(2)\YANZ\12-Oct-2023\0\\# ub3l
 yp/6-31+g(d)\\tmpdir/M1_ref_1.gjf\\0,2\C,0,-1.80408589,0.68398541,1.22
 253756\H,0,-2.80967507,1.06898249,1.39913883\H,0,-1.27443479,1.1171978
 5,0.35257585\H,0,-1.62765964,-0.37782127,1.28047255\\Version=ES64L-G16
 RevA.03\State=2-A\HF=-39.8379332\S2=0.752859\S2-1=0.\S2A=0.750005\RMSD
 =9.441e-09\Dipole=-0.1038433,-0.081015,-0.1712162\Quadrupole=0.1342934
 ,0.2249541,-0.3592475,-0.3220642,-0.4966558,-0.2679565\PG=C01 [X(C1H3)
 ]\\@


 THE ONLY TROUBLE WITH A SURE THING IS THE UNCERTAINTY.
     -- FROM A TEABAG (BELONGING TO W.H.?)
 Job cpu time:       0 days  0 hours  0 minutes  8.3 seconds.
 Elapsed time:       0 days  0 hours  0 minutes  2.4 seconds.
 File lengths (MBytes):  RWF=      6 Int=      0 D2E=      0 Chk=      1 Scr=      1
 Normal termination of Gaussian 16 at Thu Oct 12 15:17:40 2023.
