 Entering Gaussian System, Link 0=g16
 Initial command:
 /share/apps/gaussian/g16/l1.exe "/tmp/58286.mgr/Gau-31378.inp" -scrdir="/tmp/58286.mgr/"
 Entering Link 1 = /share/apps/gaussian/g16/l1.exe PID=     31379.
  
 Copyright (c) 1988,1990,1992,1993,1995,1998,2003,2009,2016,
            Gaussian, Inc.  All Rights Reserved.
  
 This is part of the Gaussian(R) 16 program.  It is based on
 the Gaussian(R) 09 system (copyright 2009, Gaussian, Inc.),
 the Gaussian(R) 03 system (copyright 2003, Gaussian, Inc.),
 the Gaussian(R) 98 system (copyright 1998, Gaussian, Inc.),
 the Gaussian(R) 94 system (copyright 1995, Gaussian, Inc.),
 the Gaussian 92(TM) system (copyright 1992, Gaussian, Inc.),
 the Gaussian 90(TM) system (copyright 1990, Gaussian, Inc.),
 the Gaussian 88(TM) system (copyright 1988, Gaussian, Inc.),
 the Gaussian 86(TM) system (copyright 1986, Carnegie Mellon
 University), and the Gaussian 82(TM) system (copyright 1983,
 Carnegie Mellon University). Gaussian is a federally registered
 trademark of Gaussian, Inc.
  
 This software contains proprietary and confidential information,
 including trade secrets, belonging to Gaussian, Inc.
  
 This software is provided under written license and may be
 used, copied, transmitted, or stored only in accord with that
 written license.
  
 The following legend is applicable only to US Government
 contracts under FAR:
  
                    RESTRICTED RIGHTS LEGEND
  
 Use, reproduction and disclosure by the US Government is
 subject to restrictions as set forth in subparagraphs (a)
 and (c) of the Commercial Computer Software - Restricted
 Rights clause in FAR 52.227-19.
  
 Gaussian, Inc.
 340 Quinnipiac St., Bldg. 40, Wallingford CT 06492
  
  
 ---------------------------------------------------------------
 Warning -- This program may not be used in any manner that
 competes with the business of Gaussian, Inc. or will provide
 assistance to any competitor of Gaussian, Inc.  The licensee
 of this program is prohibited from giving any competitor of
 Gaussian, Inc. access to this program.  By using this program,
 the user acknowledges that Gaussian, Inc. is engaged in the
 business of creating and licensing software in the field of
 computational chemistry and represents and warrants to the
 licensee that it is not a competitor of Gaussian, Inc. and that
 it will not use this program in any manner prohibited above.
 ---------------------------------------------------------------
  

 Cite this work as:
 Gaussian 16, Revision A.03,
 M. J. Frisch, G. W. Trucks, H. B. Schlegel, G. E. Scuseria, 
 M. A. Robb, J. R. Cheeseman, G. Scalmani, V. Barone, 
 G. A. Petersson, H. Nakatsuji, X. Li, M. Caricato, A. V. Marenich, 
 J. Bloino, B. G. Janesko, R. Gomperts, B. Mennucci, H. P. Hratchian, 
 J. V. Ortiz, A. F. Izmaylov, J. L. Sonnenberg, D. Williams-Young, 
 F. Ding, F. Lipparini, F. Egidi, J. Goings, B. Peng, A. Petrone, 
 T. Henderson, D. Ranasinghe, V. G. Zakrzewski, J. Gao, N. Rega, 
 G. Zheng, W. Liang, M. Hada, M. Ehara, K. Toyota, R. Fukuda, 
 J. Hasegawa, M. Ishida, T. Nakajima, Y. Honda, O. Kitao, H. Nakai, 
 T. Vreven, K. Throssell, J. A. Montgomery, Jr., J. E. Peralta, 
 F. Ogliaro, M. J. Bearpark, J. J. Heyd, E. N. Brothers, K. N. Kudin, 
 V. N. Staroverov, T. A. Keith, R. Kobayashi, J. Normand, 
 K. Raghavachari, A. P. Rendell, J. C. Burant, S. S. Iyengar, 
 J. Tomasi, M. Cossi, J. M. Millam, M. Klene, C. Adamo, R. Cammi, 
 J. W. Ochterski, R. L. Martin, K. Morokuma, O. Farkas, 
 J. B. Foresman, and D. J. Fox, Gaussian, Inc., Wallingford CT, 2016.
 
 ******************************************
 Gaussian 16:  ES64L-G16RevA.03 25-Dec-2016
                12-Oct-2023 
 ******************************************
 %nprocshared=2
 Will use up to    2 processors via shared memory.
 %mem=2GB
 ------------------
 # ub3lyp/6-31+g(d)
 ------------------
 1/38=1,172=1/1;
 2/12=2,17=6,18=5,40=1/2;
 3/5=1,6=6,7=11,11=2,25=1,30=1,74=-5,116=2/1,2,3;
 4//1;
 5/5=2,38=5/2;
 6/7=2,8=2,9=2,10=2,28=1/1;
 99/5=1,9=1/99;
 -----------------------
 tmpdir/M2_conf_0_60.gjf
 -----------------------
 Symbolic Z-matrix:
 Charge =  0 Multiplicity = 1
 C                     0.        0.        0. 
 C                     1.5278    0.        0. 
 H                     2.06124   0.        0.94516 
 H                    -0.34003  -0.78984  -0.68274 
 H                    -0.19334   0.97916  -0.47841 
 H                    -0.42584  -0.088     1.0018 
 O                     2.01647   0.07573  -1.06962 
 
                          Input orientation:                          
 ---------------------------------------------------------------------
 Center     Atomic      Atomic             Coordinates (Angstroms)
 Number     Number       Type             X           Y           Z
 ---------------------------------------------------------------------
      1          6           0        0.000000    0.000000    0.000000
      2          6           0        1.527800    0.000000    0.000000
      3          1           0        2.061240    0.000000    0.945160
      4          1           0       -0.340030   -0.789840   -0.682740
      5          1           0       -0.193340    0.979160   -0.478410
      6          1           0       -0.425840   -0.088000    1.001800
      7          8           0        2.016470    0.075730   -1.069620
 ---------------------------------------------------------------------
                    Distance matrix (angstroms):
                    1          2          3          4          5
     1  C    0.000000
     2  C    1.527800   0.000000
     3  H    2.267606   1.085304   0.000000
     4  H    1.097999   2.139806   3.006660   0.000000
     5  H    1.106802   2.037143   2.840499   1.786793   0.000000
     6  H    1.092102   2.197284   2.489281   1.826915   1.839540
     7  O    2.283851   1.178397   2.016700   2.540075   2.459466
                    6          7
     6  H    0.000000
     7  O    3.206629   0.000000
 Stoichiometry    C2H4O
 Framework group  C1[X(C2H4O)]
 Deg. of freedom    15
 Full point group                 C1      NOp   1
 Largest Abelian subgroup         C1      NOp   1
 Largest concise Abelian subgroup C1      NOp   1
                         Standard orientation:                         
 ---------------------------------------------------------------------
 Center     Atomic      Atomic             Coordinates (Angstroms)
 Number     Number       Type             X           Y           Z
 ---------------------------------------------------------------------
      1          6           0        1.138385   -0.140874   -0.001442
      2          6           0       -0.262560    0.468392   -0.019405
      3          1           0       -0.375646    1.547131    0.018269
      4          1           0        1.201686   -0.872059   -0.818120
      5          1           0        1.096617   -0.693489    0.956620
      6          1           0        1.930044    0.610554   -0.037754
      7          8           0       -1.138456   -0.319655    0.000759
 ---------------------------------------------------------------------
 Rotational constants (GHZ):          50.0300243          11.2350932           9.7415095
 Standard basis: 6-31+G(d) (6D, 7F)
 There are    65 symmetry adapted cartesian basis functions of A   symmetry.
 There are    65 symmetry adapted basis functions of A   symmetry.
    65 basis functions,   112 primitive gaussians,    65 cartesian basis functions
    12 alpha electrons       12 beta electrons
       nuclear repulsion energy        70.8824933734 Hartrees.
 NAtoms=    7 NActive=    7 NUniq=    7 SFac= 1.00D+00 NAtFMM=   60 NAOKFM=F Big=F
 Integral buffers will be    131072 words long.
 Raffenetti 2 integral format.
 Two-electron integral symmetry is turned on.
 One-electron integrals computed using PRISM.
 NBasis=    65 RedAO= T EigKep=  3.38D-04  NBF=    65
 NBsUse=    65 1.00D-06 EigRej= -1.00D+00 NBFU=    65
 ExpMin= 4.38D-02 ExpMax= 5.48D+03 ExpMxC= 8.25D+02 IAcc=3 IRadAn=         5 AccDes= 0.00D+00
 Harris functional with IExCor=  402 and IRadAn=       5 diagonalized for initial guess.
 HarFok:  IExCor=  402 AccDes= 0.00D+00 IRadAn=         5 IDoV= 1 UseB2=F ITyADJ=14
 ICtDFT=  3500011 ScaDFX=  1.000000  1.000000  1.000000  1.000000
 FoFCou: FMM=F IPFlag=           0 FMFlag=      100000 FMFlg1=           0
         NFxFlg=           0 DoJE=T BraDBF=F KetDBF=T FulRan=T
         wScrn=  0.000000 ICntrl=       500 IOpCl=  0 I1Cent=   200000004 NGrid=           0
         NMat0=    1 NMatS0=      1 NMatT0=    0 NMatD0=    1 NMtDS0=    0 NMtDT0=    0
 Petite list used in FoFCou.
 Initial guess <Sx>= 0.0000 <Sy>= 0.0000 <Sz>= 0.0000 <S**2>=-0.0000 S=-0.0000
 Keep R1 and R2 ints in memory in canonical form, NReq=6379691.
 Requested convergence on RMS density matrix=1.00D-08 within 128 cycles.
 Requested convergence on MAX density matrix=1.00D-06.
 Requested convergence on             energy=1.00D-06.
 No special actions if energy rises.
 SCF Done:  E(UB3LYP) =  -153.828705834     A.U. after   11 cycles
            NFock= 11  Conv=0.18D-08     -V/T= 2.0085
 <Sx>= 0.0000 <Sy>= 0.0000 <Sz>= 0.0000 <S**2>=-0.0000 S=-0.0000
 <L.S>= 0.000000000000E+00
 Annihilation of the first spin contaminant:
 S**2 before annihilation    -0.0000,   after     0.0000

 **********************************************************************

            Population analysis using the SCF density.

 **********************************************************************

 Orbital symmetries:
 Alpha Orbitals:
       Occupied  (A) (A) (A) (A) (A) (A) (A) (A) (A) (A) (A) (A)
       Virtual   (A) (A) (A) (A) (A) (A) (A) (A) (A) (A) (A) (A)
                 (A) (A) (A) (A) (A) (A) (A) (A) (A) (A) (A) (A)
                 (A) (A) (A) (A) (A) (A) (A) (A) (A) (A) (A) (A)
                 (A) (A) (A) (A) (A) (A) (A) (A) (A) (A) (A) (A)
                 (A) (A) (A) (A) (A)
 Beta  Orbitals:
       Occupied  (A) (A) (A) (A) (A) (A) (A) (A) (A) (A) (A) (A)
       Virtual   (A) (A) (A) (A) (A) (A) (A) (A) (A) (A) (A) (A)
                 (A) (A) (A) (A) (A) (A) (A) (A) (A) (A) (A) (A)
                 (A) (A) (A) (A) (A) (A) (A) (A) (A) (A) (A) (A)
                 (A) (A) (A) (A) (A) (A) (A) (A) (A) (A) (A) (A)
                 (A) (A) (A) (A) (A)
 The electronic state is 1-A.
 Alpha  occ. eigenvalues --  -19.16375 -10.28732 -10.19896  -1.08114  -0.74929
 Alpha  occ. eigenvalues --   -0.59748  -0.48969  -0.45758  -0.44026  -0.41186
 Alpha  occ. eigenvalues --   -0.37416  -0.26504
 Alpha virt. eigenvalues --   -0.03778   0.01242   0.02502   0.04706   0.04942
 Alpha virt. eigenvalues --    0.07255   0.07793   0.09365   0.14234   0.16778
 Alpha virt. eigenvalues --    0.17560   0.20501   0.22608   0.25109   0.25223
 Alpha virt. eigenvalues --    0.28319   0.30179   0.33496   0.40185   0.63306
 Alpha virt. eigenvalues --    0.65145   0.66643   0.68129   0.75385   0.76083
 Alpha virt. eigenvalues --    0.90879   0.91489   1.00416   1.05405   1.07693
 Alpha virt. eigenvalues --    1.17086   1.20129   1.23021   1.30485   1.38178
 Alpha virt. eigenvalues --    1.52339   1.56255   1.70366   1.79279   1.81068
 Alpha virt. eigenvalues --    1.90693   2.05741   2.18192   2.21679   2.24680
 Alpha virt. eigenvalues --    2.38099   2.58548   2.60043   2.87743   3.06359
 Alpha virt. eigenvalues --    4.11001   4.17946   4.38739
  Beta  occ. eigenvalues --  -19.16375 -10.28732 -10.19896  -1.08114  -0.74929
  Beta  occ. eigenvalues --   -0.59748  -0.48969  -0.45758  -0.44026  -0.41186
  Beta  occ. eigenvalues --   -0.37416  -0.26504
  Beta virt. eigenvalues --   -0.03778   0.01242   0.02502   0.04706   0.04942
  Beta virt. eigenvalues --    0.07255   0.07793   0.09365   0.14234   0.16778
  Beta virt. eigenvalues --    0.17560   0.20501   0.22608   0.25109   0.25223
  Beta virt. eigenvalues --    0.28319   0.30179   0.33496   0.40185   0.63306
  Beta virt. eigenvalues --    0.65145   0.66643   0.68129   0.75385   0.76083
  Beta virt. eigenvalues --    0.90879   0.91489   1.00416   1.05405   1.07693
  Beta virt. eigenvalues --    1.17086   1.20129   1.23021   1.30485   1.38178
  Beta virt. eigenvalues --    1.52339   1.56255   1.70366   1.79279   1.81068
  Beta virt. eigenvalues --    1.90693   2.05741   2.18192   2.21679   2.24680
  Beta virt. eigenvalues --    2.38099   2.58548   2.60043   2.87743   3.06359
  Beta virt. eigenvalues --    4.11001   4.17946   4.38739
          Condensed to atoms (all electrons):
               1          2          3          4          5          6
     1  C    5.654313   0.178221  -0.113527   0.390881   0.384971   0.362432
     2  C    0.178221   4.876201   0.383832  -0.035620  -0.034043  -0.040320
     3  H   -0.113527   0.383832   0.620297   0.002336   0.002729   0.005638
     4  H    0.390881  -0.035620   0.002336   0.458294  -0.020134  -0.023492
     5  H    0.384971  -0.034043   0.002729  -0.020134   0.473451  -0.023307
     6  H    0.362432  -0.040320   0.005638  -0.023492  -0.023307   0.513722
     7  O   -0.147666   0.444292  -0.063546  -0.007643  -0.014271   0.009756
               7
     1  C   -0.147666
     2  C    0.444292
     3  H   -0.063546
     4  H   -0.007643
     5  H   -0.014271
     6  H    0.009756
     7  O    8.120686
          Atomic-Atomic Spin Densities.
               1          2          3          4          5          6
     1  C    0.000000  -0.000000   0.000000   0.000000   0.000000   0.000000
     2  C   -0.000000   0.000000  -0.000000   0.000000   0.000000  -0.000000
     3  H    0.000000  -0.000000  -0.000000   0.000000  -0.000000   0.000000
     4  H    0.000000   0.000000   0.000000   0.000000   0.000000   0.000000
     5  H    0.000000   0.000000  -0.000000   0.000000   0.000000   0.000000
     6  H    0.000000  -0.000000   0.000000   0.000000   0.000000  -0.000000
     7  O    0.000000  -0.000000   0.000000  -0.000000  -0.000000   0.000000
               7
     1  C    0.000000
     2  C   -0.000000
     3  H    0.000000
     4  H   -0.000000
     5  H   -0.000000
     6  H    0.000000
     7  O    0.000000
 Mulliken charges and spin densities:
               1          2
     1  C   -0.709625   0.000000
     2  C    0.227438  -0.000000
     3  H    0.162241   0.000000
     4  H    0.235378   0.000000
     5  H    0.230604   0.000000
     6  H    0.195571   0.000000
     7  O   -0.341607   0.000000
 Sum of Mulliken charges =  -0.00000   0.00000
 Mulliken charges and spin densities with hydrogens summed into heavy atoms:
               1          2
     1  C   -0.048072   0.000000
     2  C    0.389679  -0.000000
     7  O   -0.341607   0.000000
 Electronic spatial extent (au):  <R**2>=            160.4316
 Charge=             -0.0000 electrons
 Dipole moment (field-independent basis, Debye):
    X=              2.1030    Y=              1.3717    Z=              0.0067  Tot=              2.5108
 Quadrupole moment (field-independent basis, Debye-Ang):
   XX=            -21.7842   YY=            -17.9572   ZZ=            -17.9244
   XY=             -1.2294   XZ=             -0.0975   YZ=              0.0412
 Traceless Quadrupole moment (field-independent basis, Debye-Ang):
   XX=             -2.5622   YY=              1.2647   ZZ=              1.2976
   XY=             -1.2294   XZ=             -0.0975   YZ=              0.0412
 Octapole moment (field-independent basis, Debye-Ang**2):
  XXX=             -0.0090  YYY=              0.8507  ZZZ=              0.1817  XYY=             -0.8453
  XXY=              1.3639  XXZ=             -0.3763  XZZ=             -1.2036  YZZ=             -1.0653
  YYZ=             -0.1773  XYZ=              0.1350
 Hexadecapole moment (field-independent basis, Debye-Ang**3):
 XXXX=           -146.0156 YYYY=            -47.4501 ZZZZ=            -24.3578 XXXY=              2.6109
 XXXZ=             -0.7620 YYYX=              0.0972 YYYZ=              0.3508 ZZZX=             -0.0073
 ZZZY=             -0.0982 XXYY=            -30.3184 XXZZ=            -27.3552 YYZZ=            -11.5573
 XXYZ=              0.2113 YYXZ=             -0.3848 ZZXY=             -0.5785
 N-N= 7.088249337336D+01 E-N=-5.007807454402D+02  KE= 1.525396212651D+02
                          Isotropic Fermi Contact Couplings
        Atom                 a.u.       MegaHertz       Gauss      10(-4) cm-1
     1  C(13)             -0.00000      -0.00000      -0.00000      -0.00000
     2  C(13)              0.00000       0.00000       0.00000       0.00000
     3  H(1)               0.00000       0.00000       0.00000       0.00000
     4  H(1)              -0.00000      -0.00000      -0.00000      -0.00000
     5  H(1)              -0.00000      -0.00000      -0.00000      -0.00000
     6  H(1)               0.00000       0.00000       0.00000       0.00000
     7  O(17)              0.00000      -0.00000      -0.00000      -0.00000
 --------------------------------------------------------
       Center         ----  Spin Dipole Couplings  ----
                      3XX-RR        3YY-RR        3ZZ-RR
 --------------------------------------------------------
     1   Atom        0.000000      0.000000      0.000000
     2   Atom        0.000000      0.000000      0.000000
     3   Atom        0.000000      0.000000      0.000000
     4   Atom        0.000000      0.000000      0.000000
     5   Atom        0.000000      0.000000      0.000000
     6   Atom        0.000000      0.000000      0.000000
     7   Atom        0.000000      0.000000      0.000000
 --------------------------------------------------------
                        XY            XZ            YZ
 --------------------------------------------------------
     1   Atom        0.000000      0.000000      0.000000
     2   Atom        0.000000      0.000000      0.000000
     3   Atom        0.000000      0.000000      0.000000
     4   Atom        0.000000      0.000000      0.000000
     5   Atom        0.000000      0.000000      0.000000
     6   Atom        0.000000      0.000000      0.000000
     7   Atom        0.000000      0.000000      0.000000
 --------------------------------------------------------


 ---------------------------------------------------------------------------------
              Anisotropic Spin Dipole Couplings in Principal Axis System
 ---------------------------------------------------------------------------------

       Atom             a.u.   MegaHertz   Gauss  10(-4) cm-1        Axes

              Baa     0.0000     0.000     0.000     0.000  1.0000  0.0000  0.0000
     1 C(13)  Bbb     0.0000     0.000     0.000     0.000 -0.0000  1.0000  0.0000
              Bcc     0.0000     0.000     0.000     0.000  0.0000  0.0000  1.0000
 
              Baa     0.0000     0.000     0.000     0.000  1.0000  0.0000  0.0000
     2 C(13)  Bbb     0.0000     0.000     0.000     0.000 -0.0000  1.0000  0.0000
              Bcc     0.0000     0.000     0.000     0.000  0.0000  0.0000  1.0000
 
              Baa     0.0000     0.000     0.000     0.000  1.0000  0.0000  0.0000
     3 H(1)   Bbb     0.0000     0.000     0.000     0.000 -0.0000  1.0000  0.0000
              Bcc     0.0000     0.000     0.000     0.000  0.0000  0.0000  1.0000
 
              Baa     0.0000     0.000     0.000     0.000  1.0000  0.0000  0.0000
     4 H(1)   Bbb     0.0000     0.000     0.000     0.000 -0.0000  1.0000  0.0000
              Bcc     0.0000     0.000     0.000     0.000  0.0000  0.0000  1.0000
 
              Baa     0.0000     0.000     0.000     0.000  1.0000  0.0000  0.0000
     5 H(1)   Bbb     0.0000     0.000     0.000     0.000 -0.0000  1.0000  0.0000
              Bcc     0.0000     0.000     0.000     0.000  0.0000  0.0000  1.0000
 
              Baa     0.0000     0.000     0.000     0.000  1.0000  0.0000  0.0000
     6 H(1)   Bbb     0.0000     0.000     0.000     0.000 -0.0000  1.0000  0.0000
              Bcc     0.0000     0.000     0.000     0.000  0.0000  0.0000  1.0000
 
              Baa     0.0000    -0.000    -0.000    -0.000  1.0000  0.0000  0.0000
     7 O(17)  Bbb     0.0000    -0.000    -0.000    -0.000 -0.0000  1.0000  0.0000
              Bcc     0.0000    -0.000    -0.000    -0.000  0.0000  0.0000  1.0000
 

 ---------------------------------------------------------------------------------

 1\1\GINC-NODE32\SP\UB3LYP\6-31+G(d)\C2H4O1\YANZ\12-Oct-2023\0\\# ub3ly
 p/6-31+g(d)\\tmpdir/M2_conf_0_60.gjf\\0,1\C,0,0.,0.,0.\C,0,1.5278,0.,0
 .\H,0,2.06124,0.,0.94516\H,0,-0.34003,-0.78984,-0.68274\H,0,-0.19334,0
 .97916,-0.47841\H,0,-0.42584,-0.088,1.0018\O,0,2.01647,0.07573,-1.0696
 2\\Version=ES64L-G16RevA.03\State=1-A\HF=-153.8287058\S2=0.\S2-1=0.\S2
 A=0.\RMSD=1.786e-09\Dipole=-0.5435199,-0.0420963,0.8237943\Quadrupole=
 -0.7854912,0.9620869,-0.1765957,-0.0193418,1.6646142,0.0719712\PG=C01 
 [X(C2H4O1)]\\@


 ERWIN WITH HIS PSI CAN DO
 CALCULATIONS QUITE A FEW.
 BUT ONE THING HAS NOT BEEN SEEN
 JUST WHAT DOES PSI REALLY MEAN.
 -- WALTER HUCKEL, TRANS. BY FELIX BLOCH
 Job cpu time:       0 days  0 hours  0 minutes 21.8 seconds.
 Elapsed time:       0 days  0 hours  0 minutes 11.1 seconds.
 File lengths (MBytes):  RWF=      6 Int=      0 D2E=      0 Chk=      1 Scr=      1
 Normal termination of Gaussian 16 at Thu Oct 12 15:14:33 2023.
