 Entering Gaussian System, Link 0=g16
 Initial command:
 /share/apps/gaussian/g16/l1.exe "/tmp/58286.mgr/Gau-31382.inp" -scrdir="/tmp/58286.mgr/"
 Entering Link 1 = /share/apps/gaussian/g16/l1.exe PID=     31383.
  
 Copyright (c) 1988,1990,1992,1993,1995,1998,2003,2009,2016,
            Gaussian, Inc.  All Rights Reserved.
  
 This is part of the Gaussian(R) 16 program.  It is based on
 the Gaussian(R) 09 system (copyright 2009, Gaussian, Inc.),
 the Gaussian(R) 03 system (copyright 2003, Gaussian, Inc.),
 the Gaussian(R) 98 system (copyright 1998, Gaussian, Inc.),
 the Gaussian(R) 94 system (copyright 1995, Gaussian, Inc.),
 the Gaussian 92(TM) system (copyright 1992, Gaussian, Inc.),
 the Gaussian 90(TM) system (copyright 1990, Gaussian, Inc.),
 the Gaussian 88(TM) system (copyright 1988, Gaussian, Inc.),
 the Gaussian 86(TM) system (copyright 1986, Carnegie Mellon
 University), and the Gaussian 82(TM) system (copyright 1983,
 Carnegie Mellon University). Gaussian is a federally registered
 trademark of Gaussian, Inc.
  
 This software contains proprietary and confidential information,
 including trade secrets, belonging to Gaussian, Inc.
  
 This software is provided under written license and may be
 used, copied, transmitted, or stored only in accord with that
 written license.
  
 The following legend is applicable only to US Government
 contracts under FAR:
  
                    RESTRICTED RIGHTS LEGEND
  
 Use, reproduction and disclosure by the US Government is
 subject to restrictions as set forth in subparagraphs (a)
 and (c) of the Commercial Computer Software - Restricted
 Rights clause in FAR 52.227-19.
  
 Gaussian, Inc.
 340 Quinnipiac St., Bldg. 40, Wallingford CT 06492
  
  
 ---------------------------------------------------------------
 Warning -- This program may not be used in any manner that
 competes with the business of Gaussian, Inc. or will provide
 assistance to any competitor of Gaussian, Inc.  The licensee
 of this program is prohibited from giving any competitor of
 Gaussian, Inc. access to this program.  By using this program,
 the user acknowledges that Gaussian, Inc. is engaged in the
 business of creating and licensing software in the field of
 computational chemistry and represents and warrants to the
 licensee that it is not a competitor of Gaussian, Inc. and that
 it will not use this program in any manner prohibited above.
 ---------------------------------------------------------------
  

 Cite this work as:
 Gaussian 16, Revision A.03,
 M. J. Frisch, G. W. Trucks, H. B. Schlegel, G. E. Scuseria, 
 M. A. Robb, J. R. Cheeseman, G. Scalmani, V. Barone, 
 G. A. Petersson, H. Nakatsuji, X. Li, M. Caricato, A. V. Marenich, 
 J. Bloino, B. G. Janesko, R. Gomperts, B. Mennucci, H. P. Hratchian, 
 J. V. Ortiz, A. F. Izmaylov, J. L. Sonnenberg, D. Williams-Young, 
 F. Ding, F. Lipparini, F. Egidi, J. Goings, B. Peng, A. Petrone, 
 T. Henderson, D. Ranasinghe, V. G. Zakrzewski, J. Gao, N. Rega, 
 G. Zheng, W. Liang, M. Hada, M. Ehara, K. Toyota, R. Fukuda, 
 J. Hasegawa, M. Ishida, T. Nakajima, Y. Honda, O. Kitao, H. Nakai, 
 T. Vreven, K. Throssell, J. A. Montgomery, Jr., J. E. Peralta, 
 F. Ogliaro, M. J. Bearpark, J. J. Heyd, E. N. Brothers, K. N. Kudin, 
 V. N. Staroverov, T. A. Keith, R. Kobayashi, J. Normand, 
 K. Raghavachari, A. P. Rendell, J. C. Burant, S. S. Iyengar, 
 J. Tomasi, M. Cossi, J. M. Millam, M. Klene, C. Adamo, R. Cammi, 
 J. W. Ochterski, R. L. Martin, K. Morokuma, O. Farkas, 
 J. B. Foresman, and D. J. Fox, Gaussian, Inc., Wallingford CT, 2016.
 
 ******************************************
 Gaussian 16:  ES64L-G16RevA.03 25-Dec-2016
                12-Oct-2023 
 ******************************************
 %nprocshared=2
 Will use up to    2 processors via shared memory.
 %mem=2GB
 ------------------
 # ub3lyp/6-31+g(d)
 ------------------
 1/38=1,172=1/1;
 2/12=2,17=6,18=5,40=1/2;
 3/5=1,6=6,7=11,11=2,25=1,30=1,74=-5,116=2/1,2,3;
 4//1;
 5/5=2,38=5/2;
 6/7=2,8=2,9=2,10=2,28=1/1;
 99/5=1,9=1/99;
 -----------------------
 tmpdir/M2_conf_0_55.gjf
 -----------------------
 Symbolic Z-matrix:
 Charge =  0 Multiplicity = 2
 C                     0.        0.        0. 
 C                     1.5288    0.        0. 
 H                     2.0855    0.        0.93758 
 H                    -0.21043  -1.02477   0.35206 
 H                    -0.4359    0.75897   0.65351 
 H                    -0.33001   0.07356  -1.04664 
 H                     1.91122  -0.64116  -0.77752 
 
                          Input orientation:                          
 ---------------------------------------------------------------------
 Center     Atomic      Atomic             Coordinates (Angstroms)
 Number     Number       Type             X           Y           Z
 ---------------------------------------------------------------------
      1          6           0        0.000000    0.000000    0.000000
      2          6           0        1.528800    0.000000    0.000000
      3          1           0        2.085500    0.000000    0.937580
      4          1           0       -0.210430   -1.024770    0.352060
      5          1           0       -0.435900    0.758970    0.653510
      6          1           0       -0.330010    0.073560   -1.046640
      7          1           0        1.911220   -0.641160   -0.777520
 ---------------------------------------------------------------------
                    Distance matrix (angstroms):
                    1          2          3          4          5
     1  C    0.000000
     2  C    1.528800   0.000000
     3  H    2.286562   1.090400   0.000000
     4  H    1.103803   2.049151   2.581527   0.000000
     5  H    1.092300   2.205257   2.648431   1.823030   0.000000
     6  H    1.099897   2.134488   3.126856   1.782411   1.836167
     7  H    2.160645   1.077900   1.839301   2.434031   3.084993
                    6          7
     6  H    0.000000
     7  H    2.367776   0.000000
 Stoichiometry    C2H5(2)
 Framework group  C1[X(C2H5)]
 Deg. of freedom    15
 Full point group                 C1      NOp   1
 Largest Abelian subgroup         C1      NOp   1
 Largest concise Abelian subgroup C1      NOp   1
                         Standard orientation:                         
 ---------------------------------------------------------------------
 Center     Atomic      Atomic             Coordinates (Angstroms)
 Number     Number       Type             X           Y           Z
 ---------------------------------------------------------------------
      1          6           0        0.718775   -0.015673    0.003243
      2          6           0       -0.806128   -0.008669   -0.105616
      3          1           0       -1.391032   -0.871622    0.214026
      4          1           0        0.851985    0.052366    1.096864
      5          1           0        1.181472   -0.912745   -0.414240
      6          1           0        1.085719    0.920713   -0.442075
      7          1           0       -1.204026    0.957340    0.159662
 ---------------------------------------------------------------------
 Rotational constants (GHZ):          98.1143244          22.4598259          20.9449997
 Standard basis: 6-31+G(d) (6D, 7F)
 There are    48 symmetry adapted cartesian basis functions of A   symmetry.
 There are    48 symmetry adapted basis functions of A   symmetry.
    48 basis functions,    84 primitive gaussians,    48 cartesian basis functions
     9 alpha electrons        8 beta electrons
       nuclear repulsion energy        36.6727024216 Hartrees.
 NAtoms=    7 NActive=    7 NUniq=    7 SFac= 1.00D+00 NAtFMM=   60 NAOKFM=F Big=F
 Integral buffers will be    131072 words long.
 Raffenetti 2 integral format.
 Two-electron integral symmetry is turned on.
 One-electron integrals computed using PRISM.
 NBasis=    48 RedAO= T EigKep=  4.08D-04  NBF=    48
 NBsUse=    48 1.00D-06 EigRej= -1.00D+00 NBFU=    48
 ExpMin= 4.38D-02 ExpMax= 3.05D+03 ExpMxC= 4.57D+02 IAcc=3 IRadAn=         5 AccDes= 0.00D+00
 Harris functional with IExCor=  402 and IRadAn=       5 diagonalized for initial guess.
 HarFok:  IExCor=  402 AccDes= 0.00D+00 IRadAn=         5 IDoV= 1 UseB2=F ITyADJ=14
 ICtDFT=  3500011 ScaDFX=  1.000000  1.000000  1.000000  1.000000
 FoFCou: FMM=F IPFlag=           0 FMFlag=      100000 FMFlg1=           0
         NFxFlg=           0 DoJE=T BraDBF=F KetDBF=T FulRan=T
         wScrn=  0.000000 ICntrl=       500 IOpCl=  0 I1Cent=   200000004 NGrid=           0
         NMat0=    1 NMatS0=      1 NMatT0=    0 NMatD0=    1 NMtDS0=    0 NMtDT0=    0
 Petite list used in FoFCou.
 Initial guess <Sx>= 0.0000 <Sy>= 0.0000 <Sz>= 0.5000 <S**2>= 0.7500 S= 0.5000
 Keep R1 and R2 ints in memory in canonical form, NReq=3127369.
 Requested convergence on RMS density matrix=1.00D-08 within 128 cycles.
 Requested convergence on MAX density matrix=1.00D-06.
 Requested convergence on             energy=1.00D-06.
 No special actions if energy rises.
 SCF Done:  E(UB3LYP) =  -79.1552540951     A.U. after   12 cycles
            NFock= 12  Conv=0.42D-08     -V/T= 2.0109
 <Sx>= 0.0000 <Sy>= 0.0000 <Sz>= 0.5000 <S**2>= 0.7532 S= 0.5016
 <L.S>= 0.000000000000E+00
 Annihilation of the first spin contaminant:
 S**2 before annihilation     0.7532,   after     0.7500

 **********************************************************************

            Population analysis using the SCF density.

 **********************************************************************

 Orbital symmetries:
 Alpha Orbitals:
       Occupied  (A) (A) (A) (A) (A) (A) (A) (A) (A)
       Virtual   (A) (A) (A) (A) (A) (A) (A) (A) (A) (A) (A) (A)
                 (A) (A) (A) (A) (A) (A) (A) (A) (A) (A) (A) (A)
                 (A) (A) (A) (A) (A) (A) (A) (A) (A) (A) (A) (A)
                 (A) (A) (A)
 Beta  Orbitals:
       Occupied  (A) (A) (A) (A) (A) (A) (A) (A)
       Virtual   (A) (A) (A) (A) (A) (A) (A) (A) (A) (A) (A) (A)
                 (A) (A) (A) (A) (A) (A) (A) (A) (A) (A) (A) (A)
                 (A) (A) (A) (A) (A) (A) (A) (A) (A) (A) (A) (A)
                 (A) (A) (A) (A)
 The electronic state is 2-A.
 Alpha  occ. eigenvalues --  -10.19898 -10.19017  -0.75903  -0.60894  -0.45708
 Alpha  occ. eigenvalues --   -0.42273  -0.37627  -0.36696  -0.21319
 Alpha virt. eigenvalues --    0.01866   0.03213   0.05072   0.05823   0.08163
 Alpha virt. eigenvalues --    0.08855   0.09746   0.14892   0.17345   0.19422
 Alpha virt. eigenvalues --    0.22634   0.23472   0.25252   0.30233   0.62245
 Alpha virt. eigenvalues --    0.64153   0.66044   0.67560   0.68537   0.70836
 Alpha virt. eigenvalues --    0.90397   0.93328   0.94033   1.00382   1.02873
 Alpha virt. eigenvalues --    1.08683   1.28624   1.46521   1.56950   1.87081
 Alpha virt. eigenvalues --    1.90842   2.00307   2.18382   2.24133   2.28811
 Alpha virt. eigenvalues --    2.36859   2.61035   4.09958   4.32300
  Beta  occ. eigenvalues --  -10.19055 -10.18510  -0.74319  -0.58642  -0.45117
  Beta  occ. eigenvalues --   -0.40852  -0.36825  -0.36126
  Beta virt. eigenvalues --   -0.05827   0.02026   0.03403   0.05088   0.06248
  Beta virt. eigenvalues --    0.08143   0.08849   0.11134   0.15202   0.17937
  Beta virt. eigenvalues --    0.19582   0.23786   0.24657   0.26116   0.30767
  Beta virt. eigenvalues --    0.62853   0.64436   0.66863   0.69269   0.71620
  Beta virt. eigenvalues --    0.73562   0.91903   0.93970   0.94432   1.02126
  Beta virt. eigenvalues --    1.03486   1.09153   1.29854   1.49057   1.59951
  Beta virt. eigenvalues --    1.90462   1.94009   2.03121   2.22171   2.25591
  Beta virt. eigenvalues --    2.29802   2.37771   2.62468   4.12374   4.33457
          Condensed to atoms (all electrons):
               1          2          3          4          5          6
     1  C    5.417110   0.169774  -0.034800   0.389608   0.396903   0.409869
     2  C    0.169774   5.542943   0.374790  -0.070723  -0.050657  -0.067427
     3  H   -0.034800   0.374790   0.513329  -0.001413  -0.003190   0.003742
     4  H    0.389608  -0.070723  -0.001413   0.535795  -0.026759  -0.032426
     5  H    0.396903  -0.050657  -0.003190  -0.026759   0.495566  -0.022706
     6  H    0.409869  -0.067427   0.003742  -0.032426  -0.022706   0.508562
     7  H   -0.044436   0.375977  -0.034226  -0.001879   0.004124  -0.005809
               7
     1  C   -0.044436
     2  C    0.375977
     3  H   -0.034226
     4  H   -0.001879
     5  H    0.004124
     6  H   -0.005809
     7  H    0.530028
          Atomic-Atomic Spin Densities.
               1          2          3          4          5          6
     1  C   -0.007509  -0.117011  -0.008221   0.045660  -0.000546   0.000975
     2  C   -0.117011   1.300382  -0.003120  -0.059986  -0.001258  -0.002870
     3  H   -0.008221  -0.003120  -0.032869  -0.001386   0.000875   0.000140
     4  H    0.045660  -0.059986  -0.001386   0.084311  -0.008012  -0.008190
     5  H   -0.000546  -0.001258   0.000875  -0.008012   0.014343   0.002962
     6  H    0.000975  -0.002870   0.000140  -0.008190   0.002962   0.014845
     7  H   -0.006486  -0.004476   0.002354  -0.001386   0.000067   0.001258
               7
     1  C   -0.006486
     2  C   -0.004476
     3  H    0.002354
     4  H   -0.001386
     5  H    0.000067
     6  H    0.001258
     7  H   -0.036188
 Mulliken charges and spin densities:
               1          2
     1  C   -0.704026  -0.093138
     2  C   -0.274676   1.111661
     3  H    0.181768  -0.042227
     4  H    0.207799   0.051011
     5  H    0.206719   0.008430
     6  H    0.206196   0.009120
     7  H    0.176221  -0.044857
 Sum of Mulliken charges =  -0.00000   1.00000
 Mulliken charges and spin densities with hydrogens summed into heavy atoms:
               1          2
     1  C   -0.083313  -0.024577
     2  C    0.083313   1.024577
 Electronic spatial extent (au):  <R**2>=            100.0877
 Charge=             -0.0000 electrons
 Dipole moment (field-independent basis, Debye):
    X=              0.3586    Y=              0.0448    Z=              0.5999  Tot=              0.7004
 Quadrupole moment (field-independent basis, Debye-Ang):
   XX=            -15.2906   YY=            -13.7234   ZZ=            -15.5272
   XY=              0.0601   XZ=             -0.9068   YZ=              0.0129
 Traceless Quadrupole moment (field-independent basis, Debye-Ang):
   XX=             -0.4435   YY=              1.1236   ZZ=             -0.6801
   XY=              0.0601   XZ=             -0.9068   YZ=              0.0129
 Octapole moment (field-independent basis, Debye-Ang**2):
  XXX=              0.6055  YYY=              0.1869  ZZZ=              1.9478  XYY=              0.1212
  XXY=             -0.5033  XXZ=              0.7722  XZZ=              1.7268  YZZ=              0.0783
  YYZ=             -0.0339  XYZ=              0.1543
 Hexadecapole moment (field-independent basis, Debye-Ang**3):
 XXXX=            -92.0157 YYYY=            -30.0210 ZZZZ=            -27.7355 XXXY=              0.4323
 XXXZ=             -3.0250 YYYX=             -0.1186 YYYZ=             -0.0232 ZZZX=             -1.2075
 ZZZY=              0.0699 XXYY=            -18.2447 XXZZ=            -21.0602 YYZZ=             -9.9595
 XXYZ=             -0.0221 YYXZ=             -1.5521 ZZXY=              0.0434
 N-N= 3.667270242161D+01 E-N=-2.557039236308D+02  KE= 7.830178990294D+01
                          Isotropic Fermi Contact Couplings
        Atom                 a.u.       MegaHertz       Gauss      10(-4) cm-1
     1  C(13)             -0.01719     -19.31982      -6.89379      -6.44440
     2  C(13)              0.18189     204.47730      72.96259      68.20629
     3  H(1)              -0.00942     -42.09335     -15.01995     -14.04083
     4  H(1)               0.02805     125.36262      44.73250      41.81647
     5  H(1)               0.00480      21.45716       7.65645       7.15734
     6  H(1)               0.00543      24.29148       8.66781       8.10277
     7  H(1)              -0.01028     -45.94305     -16.39362     -15.32495
 --------------------------------------------------------
       Center         ----  Spin Dipole Couplings  ----
                      3XX-RR        3YY-RR        3ZZ-RR
 --------------------------------------------------------
     1   Atom        0.008972     -0.025608      0.016636
     2   Atom       -0.467695     -0.506283      0.973978
     3   Atom       -0.023555      0.023499      0.000056
     4   Atom        0.010142     -0.014216      0.004074
     5   Atom        0.012538     -0.004356     -0.008183
     6   Atom        0.012965     -0.004133     -0.008832
     7   Atom       -0.046206      0.047933     -0.001727
 --------------------------------------------------------
                        XY            XZ            YZ
 --------------------------------------------------------
     1   Atom       -0.002074      0.020836      0.000139
     2   Atom        0.000834      0.245564      0.017464
     3   Atom        0.059399     -0.008380     -0.024547
     4   Atom        0.000365      0.009527      0.001357
     5   Atom       -0.011326     -0.001190      0.000858
     6   Atom        0.012666     -0.001719     -0.001212
     7   Atom       -0.046023     -0.000636      0.024820
 --------------------------------------------------------


 ---------------------------------------------------------------------------------
              Anisotropic Spin Dipole Couplings in Principal Axis System
 ---------------------------------------------------------------------------------

       Atom             a.u.   MegaHertz   Gauss  10(-4) cm-1        Axes

              Baa    -0.0258    -3.461    -1.235    -1.155  0.0869  0.9952 -0.0459
     1 C(13)  Bbb    -0.0082    -1.103    -0.394    -0.368  0.7631 -0.0961 -0.6391
              Bcc     0.0340     4.564     1.629     1.523  0.6405 -0.0205  0.7677
 
              Baa    -0.5097   -68.393   -24.404   -22.813  0.8310  0.5374 -0.1439
     2 C(13)  Bbb    -0.5052   -67.791   -24.190   -22.613 -0.5318  0.8433  0.0783
              Bcc     1.0149   136.184    48.594    45.426  0.1634  0.0114  0.9865
 
              Baa    -0.0647   -34.523   -12.318   -11.515  0.8091 -0.5766 -0.1138
     3 H(1)   Bbb    -0.0078    -4.178    -1.491    -1.394  0.2789  0.2062  0.9379
              Bcc     0.0725    38.701    13.809    12.909  0.5173  0.7906 -0.3276
 
              Baa    -0.0143    -7.641    -2.727    -2.549  0.0173  0.9964 -0.0825
     4 H(1)   Bbb    -0.0028    -1.506    -0.537    -0.502 -0.5918  0.0766  0.8024
              Bcc     0.0171     9.147     3.264     3.051  0.8059  0.0350  0.5910
 
              Baa    -0.0101    -5.372    -1.917    -1.792  0.4389  0.8894 -0.1278
     5 H(1)   Bbb    -0.0082    -4.392    -1.567    -1.465  0.1059  0.0901  0.9903
              Bcc     0.0183     9.764     3.484     3.257  0.8923 -0.4481 -0.0546
 
              Baa    -0.0109    -5.816    -2.075    -1.940 -0.4568  0.8792  0.1355
     6 H(1)   Bbb    -0.0089    -4.774    -1.704    -1.592  0.1273 -0.0861  0.9881
              Bcc     0.0198    10.590     3.779     3.533  0.8804  0.4686 -0.0726
 
              Baa    -0.0662   -35.343   -12.611   -11.789  0.9066  0.3967 -0.1437
     7 H(1)   Bbb    -0.0076    -4.075    -1.454    -1.359  0.2453 -0.2187  0.9445
              Bcc     0.0739    39.419    14.066    13.149 -0.3432  0.8915  0.2956
 

 ---------------------------------------------------------------------------------

 1\1\GINC-NODE32\SP\UB3LYP\6-31+G(d)\C2H5(2)\YANZ\12-Oct-2023\0\\# ub3l
 yp/6-31+g(d)\\tmpdir/M2_conf_0_55.gjf\\0,2\C,0,0.,0.,0.\C,0,1.5288,0.,
 0.\H,0,2.0855,0.,0.93758\H,0,-0.21043,-1.02477,0.35206\H,0,-0.4359,0.7
 5897,0.65351\H,0,-0.33001,0.07356,-1.04664\H,0,1.91122,-0.64116,-0.777
 52\\Version=ES64L-G16RevA.03\State=2-A\HF=-79.1552541\S2=0.75321\S2-1=
 0.\S2A=0.750007\RMSD=4.152e-09\Dipole=-0.1574523,-0.2151138,0.0697181\
 Quadrupole=-0.4267962,-0.2226623,0.6494585,-0.6124572,0.2978233,0.4441
 155\PG=C01 [X(C2H5)]\\@


 Everything starts as somebody's daydream.
                           -- Larry Niven
 Job cpu time:       0 days  0 hours  0 minutes 17.2 seconds.
 Elapsed time:       0 days  0 hours  0 minutes  8.7 seconds.
 File lengths (MBytes):  RWF=      6 Int=      0 D2E=      0 Chk=      1 Scr=      1
 Normal termination of Gaussian 16 at Thu Oct 12 15:14:31 2023.
