 Entering Gaussian System, Link 0=g16
 Initial command:
 /share/apps/gaussian/g16/l1.exe "/tmp/58286.mgr/Gau-30835.inp" -scrdir="/tmp/58286.mgr/"
 Entering Link 1 = /share/apps/gaussian/g16/l1.exe PID=     30836.
  
 Copyright (c) 1988,1990,1992,1993,1995,1998,2003,2009,2016,
            Gaussian, Inc.  All Rights Reserved.
  
 This is part of the Gaussian(R) 16 program.  It is based on
 the Gaussian(R) 09 system (copyright 2009, Gaussian, Inc.),
 the Gaussian(R) 03 system (copyright 2003, Gaussian, Inc.),
 the Gaussian(R) 98 system (copyright 1998, Gaussian, Inc.),
 the Gaussian(R) 94 system (copyright 1995, Gaussian, Inc.),
 the Gaussian 92(TM) system (copyright 1992, Gaussian, Inc.),
 the Gaussian 90(TM) system (copyright 1990, Gaussian, Inc.),
 the Gaussian 88(TM) system (copyright 1988, Gaussian, Inc.),
 the Gaussian 86(TM) system (copyright 1986, Carnegie Mellon
 University), and the Gaussian 82(TM) system (copyright 1983,
 Carnegie Mellon University). Gaussian is a federally registered
 trademark of Gaussian, Inc.
  
 This software contains proprietary and confidential information,
 including trade secrets, belonging to Gaussian, Inc.
  
 This software is provided under written license and may be
 used, copied, transmitted, or stored only in accord with that
 written license.
  
 The following legend is applicable only to US Government
 contracts under FAR:
  
                    RESTRICTED RIGHTS LEGEND
  
 Use, reproduction and disclosure by the US Government is
 subject to restrictions as set forth in subparagraphs (a)
 and (c) of the Commercial Computer Software - Restricted
 Rights clause in FAR 52.227-19.
  
 Gaussian, Inc.
 340 Quinnipiac St., Bldg. 40, Wallingford CT 06492
  
  
 ---------------------------------------------------------------
 Warning -- This program may not be used in any manner that
 competes with the business of Gaussian, Inc. or will provide
 assistance to any competitor of Gaussian, Inc.  The licensee
 of this program is prohibited from giving any competitor of
 Gaussian, Inc. access to this program.  By using this program,
 the user acknowledges that Gaussian, Inc. is engaged in the
 business of creating and licensing software in the field of
 computational chemistry and represents and warrants to the
 licensee that it is not a competitor of Gaussian, Inc. and that
 it will not use this program in any manner prohibited above.
 ---------------------------------------------------------------
  

 Cite this work as:
 Gaussian 16, Revision A.03,
 M. J. Frisch, G. W. Trucks, H. B. Schlegel, G. E. Scuseria, 
 M. A. Robb, J. R. Cheeseman, G. Scalmani, V. Barone, 
 G. A. Petersson, H. Nakatsuji, X. Li, M. Caricato, A. V. Marenich, 
 J. Bloino, B. G. Janesko, R. Gomperts, B. Mennucci, H. P. Hratchian, 
 J. V. Ortiz, A. F. Izmaylov, J. L. Sonnenberg, D. Williams-Young, 
 F. Ding, F. Lipparini, F. Egidi, J. Goings, B. Peng, A. Petrone, 
 T. Henderson, D. Ranasinghe, V. G. Zakrzewski, J. Gao, N. Rega, 
 G. Zheng, W. Liang, M. Hada, M. Ehara, K. Toyota, R. Fukuda, 
 J. Hasegawa, M. Ishida, T. Nakajima, Y. Honda, O. Kitao, H. Nakai, 
 T. Vreven, K. Throssell, J. A. Montgomery, Jr., J. E. Peralta, 
 F. Ogliaro, M. J. Bearpark, J. J. Heyd, E. N. Brothers, K. N. Kudin, 
 V. N. Staroverov, T. A. Keith, R. Kobayashi, J. Normand, 
 K. Raghavachari, A. P. Rendell, J. C. Burant, S. S. Iyengar, 
 J. Tomasi, M. Cossi, J. M. Millam, M. Klene, C. Adamo, R. Cammi, 
 J. W. Ochterski, R. L. Martin, K. Morokuma, O. Farkas, 
 J. B. Foresman, and D. J. Fox, Gaussian, Inc., Wallingford CT, 2016.
 
 ******************************************
 Gaussian 16:  ES64L-G16RevA.03 25-Dec-2016
                12-Oct-2023 
 ******************************************
 %nprocshared=2
 Will use up to    2 processors via shared memory.
 %mem=2GB
 ------------------
 # ub3lyp/6-31+g(d)
 ------------------
 1/38=1,172=1/1;
 2/12=2,17=6,18=5,40=1/2;
 3/5=1,6=6,7=11,11=2,25=1,30=1,74=-5,116=2/1,2,3;
 4//1;
 5/5=2,38=5/2;
 6/7=2,8=2,9=2,10=2,28=1/1;
 99/5=1,9=1/99;
 -----------------------
 tmpdir/M2_conf_0_19.gjf
 -----------------------
 Symbolic Z-matrix:
 Charge =  0 Multiplicity = 1
 C                     0.        0.        0. 
 C                     1.4027    0.        0. 
 C                     2.03436   0.        1.37902 
 H                    -0.50761  -0.02284  -0.86662 
 H                    -0.43022  -0.02501   1.0162 
 H                     1.90667  -0.01029  -0.86725 
 H                     1.65104  -0.87612   1.93624 
 H                     3.12464   0.05592   1.35013 
 H                     1.57598   0.81777   1.96567 
 
                          Input orientation:                          
 ---------------------------------------------------------------------
 Center     Atomic      Atomic             Coordinates (Angstroms)
 Number     Number       Type             X           Y           Z
 ---------------------------------------------------------------------
      1          6           0        0.000000    0.000000    0.000000
      2          6           0        1.402700    0.000000    0.000000
      3          6           0        2.034360    0.000000    1.379020
      4          1           0       -0.507610   -0.022840   -0.866620
      5          1           0       -0.430220   -0.025010    1.016200
      6          1           0        1.906670   -0.010290   -0.867250
      7          1           0        1.651040   -0.876120    1.936240
      8          1           0        3.124640    0.055920    1.350130
      9          1           0        1.575980    0.817770    1.965670
 ---------------------------------------------------------------------
                    Distance matrix (angstroms):
                    1          2          3          4          5
     1  C    0.000000
     2  C    1.402700   0.000000
     3  C    2.457706   1.516803   0.000000
     4  H    1.004599   2.097817   3.391907   0.000000
     5  H    1.103801   2.095921   2.491268   1.884411   0.000000
     6  H    2.094664   1.003102   2.249920   2.414313   3.001442
     7  H    2.691198   2.139693   1.106804   3.639214   2.429507
     8  H    3.404314   2.188848   1.092095   4.255987   3.571427
     9  H    2.648834   2.136032   1.105902   3.615223   2.374155
                    6          7          8          9
     6  H    0.000000
     7  H    2.945261   0.000000
     8  H    2.530733   1.839489   0.000000
     9  H    2.969928   1.695808   1.832390   0.000000
 Stoichiometry    C3H6
 Framework group  C1[X(C3H6)]
 Deg. of freedom    21
 Full point group                 C1      NOp   1
 Largest Abelian subgroup         C1      NOp   1
 Largest concise Abelian subgroup C1      NOp   1
                         Standard orientation:                         
 ---------------------------------------------------------------------
 Center     Atomic      Atomic             Coordinates (Angstroms)
 Number     Number       Type             X           Y           Z
 ---------------------------------------------------------------------
      1          6           0        1.253446   -0.263074   -0.007466
      2          6           0        0.125596    0.570872   -0.000021
      3          6           0       -1.202185   -0.162399    0.000135
      4          1           0        2.176904    0.131835    0.014688
      5          1           0        0.995261   -1.336062    0.012904
      6          1           0        0.236026    1.567765    0.014954
      7          1           0       -1.222736   -0.842729    0.872914
      8          1           0       -2.061817    0.509314   -0.049930
      9          1           0       -1.184776   -0.902516   -0.821414
 ---------------------------------------------------------------------
 Rotational constants (GHZ):          40.1757848           9.9383404           8.3495874
 Standard basis: 6-31+G(d) (6D, 7F)
 There are    69 symmetry adapted cartesian basis functions of A   symmetry.
 There are    69 symmetry adapted basis functions of A   symmetry.
    69 basis functions,   120 primitive gaussians,    69 cartesian basis functions
    12 alpha electrons       12 beta electrons
       nuclear repulsion energy        70.7760117189 Hartrees.
 NAtoms=    9 NActive=    9 NUniq=    9 SFac= 1.00D+00 NAtFMM=   60 NAOKFM=F Big=F
 Integral buffers will be    131072 words long.
 Raffenetti 2 integral format.
 Two-electron integral symmetry is turned on.
 One-electron integrals computed using PRISM.
 NBasis=    69 RedAO= T EigKep=  2.17D-04  NBF=    69
 NBsUse=    69 1.00D-06 EigRej= -1.00D+00 NBFU=    69
 ExpMin= 4.38D-02 ExpMax= 3.05D+03 ExpMxC= 4.57D+02 IAcc=3 IRadAn=         5 AccDes= 0.00D+00
 Harris functional with IExCor=  402 and IRadAn=       5 diagonalized for initial guess.
 HarFok:  IExCor=  402 AccDes= 0.00D+00 IRadAn=         5 IDoV= 1 UseB2=F ITyADJ=14
 ICtDFT=  3500011 ScaDFX=  1.000000  1.000000  1.000000  1.000000
 FoFCou: FMM=F IPFlag=           0 FMFlag=      100000 FMFlg1=           0
         NFxFlg=           0 DoJE=T BraDBF=F KetDBF=T FulRan=T
         wScrn=  0.000000 ICntrl=       500 IOpCl=  0 I1Cent=   200000004 NGrid=           0
         NMat0=    1 NMatS0=      1 NMatT0=    0 NMatD0=    1 NMtDS0=    0 NMtDT0=    0
 Petite list used in FoFCou.
 Initial guess <Sx>= 0.0000 <Sy>= 0.0000 <Sz>= 0.0000 <S**2>= 0.0000 S= 0.0000
 Keep R1 and R2 ints in memory in canonical form, NReq=7619695.
 Requested convergence on RMS density matrix=1.00D-08 within 128 cycles.
 Requested convergence on MAX density matrix=1.00D-06.
 Requested convergence on             energy=1.00D-06.
 No special actions if energy rises.
 SCF Done:  E(UB3LYP) =  -117.886359733     A.U. after   11 cycles
            NFock= 11  Conv=0.19D-08     -V/T= 2.0099
 <Sx>= 0.0000 <Sy>= 0.0000 <Sz>= 0.0000 <S**2>=-0.0000 S=-0.0000
 <L.S>= 0.000000000000E+00
 Annihilation of the first spin contaminant:
 S**2 before annihilation    -0.0000,   after     0.0000

 **********************************************************************

            Population analysis using the SCF density.

 **********************************************************************

 Orbital symmetries:
 Alpha Orbitals:
       Occupied  (A) (A) (A) (A) (A) (A) (A) (A) (A) (A) (A) (A)
       Virtual   (A) (A) (A) (A) (A) (A) (A) (A) (A) (A) (A) (A)
                 (A) (A) (A) (A) (A) (A) (A) (A) (A) (A) (A) (A)
                 (A) (A) (A) (A) (A) (A) (A) (A) (A) (A) (A) (A)
                 (A) (A) (A) (A) (A) (A) (A) (A) (A) (A) (A) (A)
                 (A) (A) (A) (A) (A) (A) (A) (A) (A)
 Beta  Orbitals:
       Occupied  (A) (A) (A) (A) (A) (A) (A) (A) (A) (A) (A) (A)
       Virtual   (A) (A) (A) (A) (A) (A) (A) (A) (A) (A) (A) (A)
                 (A) (A) (A) (A) (A) (A) (A) (A) (A) (A) (A) (A)
                 (A) (A) (A) (A) (A) (A) (A) (A) (A) (A) (A) (A)
                 (A) (A) (A) (A) (A) (A) (A) (A) (A) (A) (A) (A)
                 (A) (A) (A) (A) (A) (A) (A) (A) (A)
 The electronic state is 1-A.
 Alpha  occ. eigenvalues --  -10.19614 -10.18845 -10.18086  -0.78651  -0.67929
 Alpha  occ. eigenvalues --   -0.57471  -0.48198  -0.41738  -0.40406  -0.37742
 Alpha  occ. eigenvalues --   -0.36567  -0.24408
 Alpha virt. eigenvalues --   -0.01699   0.01612   0.03192   0.03559   0.06161
 Alpha virt. eigenvalues --    0.06505   0.07662   0.09589   0.09706   0.11651
 Alpha virt. eigenvalues --    0.12619   0.12886   0.16536   0.19608   0.21370
 Alpha virt. eigenvalues --    0.22735   0.26798   0.28237   0.31003   0.33602
 Alpha virt. eigenvalues --    0.36412   0.60410   0.62989   0.66734   0.68795
 Alpha virt. eigenvalues --    0.70587   0.73394   0.75401   0.79083   0.88537
 Alpha virt. eigenvalues --    0.90905   0.95091   0.99860   1.04641   1.06609
 Alpha virt. eigenvalues --    1.09297   1.15486   1.29490   1.33710   1.41626
 Alpha virt. eigenvalues --    1.46075   1.69072   1.80852   1.89376   2.02398
 Alpha virt. eigenvalues --    2.09728   2.14712   2.21134   2.22110   2.26018
 Alpha virt. eigenvalues --    2.39281   2.56871   2.73044   2.77900   4.18482
 Alpha virt. eigenvalues --    4.22691   4.43012
  Beta  occ. eigenvalues --  -10.19614 -10.18845 -10.18086  -0.78651  -0.67929
  Beta  occ. eigenvalues --   -0.57471  -0.48198  -0.41738  -0.40406  -0.37742
  Beta  occ. eigenvalues --   -0.36567  -0.24408
  Beta virt. eigenvalues --   -0.01699   0.01612   0.03192   0.03559   0.06161
  Beta virt. eigenvalues --    0.06505   0.07662   0.09589   0.09706   0.11651
  Beta virt. eigenvalues --    0.12619   0.12886   0.16536   0.19608   0.21370
  Beta virt. eigenvalues --    0.22735   0.26798   0.28237   0.31003   0.33602
  Beta virt. eigenvalues --    0.36412   0.60410   0.62989   0.66734   0.68795
  Beta virt. eigenvalues --    0.70587   0.73394   0.75401   0.79083   0.88537
  Beta virt. eigenvalues --    0.90905   0.95091   0.99860   1.04641   1.06609
  Beta virt. eigenvalues --    1.09297   1.15486   1.29490   1.33710   1.41626
  Beta virt. eigenvalues --    1.46075   1.69072   1.80852   1.89376   2.02398
  Beta virt. eigenvalues --    2.09728   2.14712   2.21134   2.22110   2.26018
  Beta virt. eigenvalues --    2.39281   2.56871   2.73044   2.77900   4.18482
  Beta virt. eigenvalues --    4.22691   4.43012
          Condensed to atoms (all electrons):
               1          2          3          4          5          6
     1  C    5.133638   0.580544  -0.013726   0.397587   0.408838  -0.010616
     2  C    0.580544   5.082290   0.152881  -0.045323  -0.086519   0.356292
     3  C   -0.013726   0.152881   5.530455   0.004897   0.001719  -0.044322
     4  H    0.397587  -0.045323   0.004897   0.495926  -0.030240  -0.005902
     5  H    0.408838  -0.086519   0.001719  -0.030240   0.524099   0.004996
     6  H   -0.010616   0.356292  -0.044322  -0.005902   0.004996   0.516594
     7  H   -0.016667  -0.057864   0.402728   0.000015   0.001212   0.002485
     8  H    0.011533  -0.057930   0.397011  -0.000183   0.000379  -0.002603
     9  H   -0.012488  -0.064813   0.406590   0.000113   0.001401   0.002652
               7          8          9
     1  C   -0.016667   0.011533  -0.012488
     2  C   -0.057864  -0.057930  -0.064813
     3  C    0.402728   0.397011   0.406590
     4  H    0.000015  -0.000183   0.000113
     5  H    0.001212   0.000379   0.001401
     6  H    0.002485  -0.002603   0.002652
     7  H    0.510317  -0.020511  -0.041796
     8  H   -0.020511   0.493579  -0.020780
     9  H   -0.041796  -0.020780   0.509921
          Atomic-Atomic Spin Densities.
               1          2          3          4          5          6
     1  C    0.000000  -0.000000   0.000000   0.000000   0.000000   0.000000
     2  C   -0.000000   0.000000  -0.000000   0.000000  -0.000000  -0.000000
     3  C    0.000000  -0.000000  -0.000000  -0.000000   0.000000   0.000000
     4  H    0.000000   0.000000  -0.000000  -0.000000   0.000000   0.000000
     5  H    0.000000  -0.000000   0.000000   0.000000  -0.000000   0.000000
     6  H    0.000000  -0.000000   0.000000   0.000000   0.000000  -0.000000
     7  H   -0.000000   0.000000  -0.000000   0.000000   0.000000   0.000000
     8  H    0.000000   0.000000  -0.000000  -0.000000   0.000000   0.000000
     9  H    0.000000  -0.000000   0.000000   0.000000  -0.000000   0.000000
               7          8          9
     1  C   -0.000000   0.000000   0.000000
     2  C    0.000000   0.000000  -0.000000
     3  C   -0.000000  -0.000000   0.000000
     4  H    0.000000  -0.000000   0.000000
     5  H    0.000000   0.000000  -0.000000
     6  H    0.000000   0.000000   0.000000
     7  H    0.000000   0.000000   0.000000
     8  H    0.000000   0.000000   0.000000
     9  H    0.000000   0.000000  -0.000000
 Mulliken charges and spin densities:
               1          2
     1  C   -0.478643   0.000000
     2  C    0.140442  -0.000000
     3  C   -0.838233  -0.000000
     4  H    0.183110   0.000000
     5  H    0.174115   0.000000
     6  H    0.180425  -0.000000
     7  H    0.220081   0.000000
     8  H    0.199505   0.000000
     9  H    0.219198   0.000000
 Sum of Mulliken charges =  -0.00000   0.00000
 Mulliken charges and spin densities with hydrogens summed into heavy atoms:
               1          2
     1  C   -0.121418   0.000000
     2  C    0.320867  -0.000000
     3  C   -0.199449   0.000000
 Electronic spatial extent (au):  <R**2>=            192.5701
 Charge=             -0.0000 electrons
 Dipole moment (field-independent basis, Debye):
    X=             -0.3874    Y=              0.0277    Z=              0.0542  Tot=              0.3921
 Quadrupole moment (field-independent basis, Debye-Ang):
   XX=            -20.0240   YY=            -18.7513   ZZ=            -22.6277
   XY=              0.1089   XZ=              0.0914   YZ=             -0.0228
 Traceless Quadrupole moment (field-independent basis, Debye-Ang):
   XX=              0.4437   YY=              1.7164   ZZ=             -2.1601
   XY=              0.1089   XZ=              0.0914   YZ=             -0.0228
 Octapole moment (field-independent basis, Debye-Ang**2):
  XXX=              1.8777  YYY=              0.9435  ZZZ=              0.1854  XYY=             -0.3245
  XXY=              1.9719  XXZ=              0.0634  XZZ=             -2.1443  YZZ=             -0.8216
  YYZ=              0.0672  XYZ=              0.0513
 Hexadecapole moment (field-independent basis, Debye-Ang**3):
 XXXX=           -174.4830 YYYY=            -58.7633 ZZZZ=            -36.6578 XXXY=             -0.1543
 XXXZ=              0.6022 YYYX=              0.3775 YYYZ=              0.0695 ZZZX=              0.0654
 ZZZY=             -0.0603 XXYY=            -40.1976 XXZZ=            -39.4137 YYZZ=            -16.5535
 XXYZ=             -0.1734 YYXZ=              0.1254 ZZXY=              0.6494
 N-N= 7.077601171886D+01 E-N=-4.135075293691D+02  KE= 1.167281052041D+02
                          Isotropic Fermi Contact Couplings
        Atom                 a.u.       MegaHertz       Gauss      10(-4) cm-1
     1  C(13)              0.00000       0.00000       0.00000       0.00000
     2  C(13)              0.00000       0.00000       0.00000       0.00000
     3  C(13)              0.00000       0.00000       0.00000       0.00000
     4  H(1)               0.00000       0.00000       0.00000       0.00000
     5  H(1)               0.00000       0.00000       0.00000       0.00000
     6  H(1)              -0.00000      -0.00000      -0.00000      -0.00000
     7  H(1)               0.00000       0.00000       0.00000       0.00000
     8  H(1)               0.00000       0.00000       0.00000       0.00000
     9  H(1)               0.00000       0.00000       0.00000       0.00000
 --------------------------------------------------------
       Center         ----  Spin Dipole Couplings  ----
                      3XX-RR        3YY-RR        3ZZ-RR
 --------------------------------------------------------
     1   Atom        0.000000      0.000000      0.000000
     2   Atom        0.000000      0.000000      0.000000
     3   Atom        0.000000      0.000000      0.000000
     4   Atom        0.000000      0.000000      0.000000
     5   Atom        0.000000      0.000000      0.000000
     6   Atom        0.000000      0.000000      0.000000
     7   Atom        0.000000      0.000000      0.000000
     8   Atom        0.000000      0.000000      0.000000
     9   Atom        0.000000      0.000000      0.000000
 --------------------------------------------------------
                        XY            XZ            YZ
 --------------------------------------------------------
     1   Atom        0.000000      0.000000      0.000000
     2   Atom        0.000000      0.000000      0.000000
     3   Atom        0.000000      0.000000      0.000000
     4   Atom        0.000000      0.000000      0.000000
     5   Atom        0.000000      0.000000      0.000000
     6   Atom        0.000000      0.000000      0.000000
     7   Atom        0.000000      0.000000      0.000000
     8   Atom        0.000000      0.000000      0.000000
     9   Atom        0.000000      0.000000      0.000000
 --------------------------------------------------------


 ---------------------------------------------------------------------------------
              Anisotropic Spin Dipole Couplings in Principal Axis System
 ---------------------------------------------------------------------------------

       Atom             a.u.   MegaHertz   Gauss  10(-4) cm-1        Axes

              Baa     0.0000     0.000     0.000     0.000  1.0000  0.0000  0.0000
     1 C(13)  Bbb     0.0000     0.000     0.000     0.000 -0.0000  1.0000  0.0000
              Bcc     0.0000     0.000     0.000     0.000  0.0000  0.0000  1.0000
 
              Baa     0.0000     0.000     0.000     0.000  1.0000  0.0000  0.0000
     2 C(13)  Bbb     0.0000     0.000     0.000     0.000 -0.0000  1.0000  0.0000
              Bcc     0.0000     0.000     0.000     0.000  0.0000  0.0000  1.0000
 
              Baa     0.0000     0.000     0.000     0.000  1.0000  0.0000  0.0000
     3 C(13)  Bbb     0.0000     0.000     0.000     0.000 -0.0000  1.0000  0.0000
              Bcc     0.0000     0.000     0.000     0.000  0.0000  0.0000  1.0000
 
              Baa     0.0000     0.000     0.000     0.000  1.0000  0.0000  0.0000
     4 H(1)   Bbb     0.0000     0.000     0.000     0.000 -0.0000  1.0000  0.0000
              Bcc     0.0000     0.000     0.000     0.000  0.0000  0.0000  1.0000
 
              Baa     0.0000     0.000     0.000     0.000  1.0000  0.0000  0.0000
     5 H(1)   Bbb     0.0000     0.000     0.000     0.000 -0.0000  1.0000  0.0000
              Bcc     0.0000     0.000     0.000     0.000  0.0000  0.0000  1.0000
 
              Baa     0.0000     0.000     0.000     0.000  1.0000  0.0000  0.0000
     6 H(1)   Bbb     0.0000     0.000     0.000     0.000 -0.0000  1.0000  0.0000
              Bcc     0.0000     0.000     0.000     0.000  0.0000  0.0000  1.0000
 
              Baa     0.0000     0.000     0.000     0.000  1.0000  0.0000  0.0000
     7 H(1)   Bbb     0.0000     0.000     0.000     0.000 -0.0000  1.0000  0.0000
              Bcc     0.0000     0.000     0.000     0.000  0.0000  0.0000  1.0000
 
              Baa     0.0000     0.000     0.000     0.000  1.0000  0.0000  0.0000
     8 H(1)   Bbb     0.0000     0.000     0.000     0.000 -0.0000  1.0000  0.0000
              Bcc     0.0000     0.000     0.000     0.000  0.0000  0.0000  1.0000
 
              Baa     0.0000     0.000     0.000     0.000  1.0000  0.0000  0.0000
     9 H(1)   Bbb     0.0000     0.000     0.000     0.000 -0.0000  1.0000  0.0000
              Bcc     0.0000     0.000     0.000     0.000  0.0000  0.0000  1.0000
 

 ---------------------------------------------------------------------------------

 1\1\GINC-NODE32\SP\UB3LYP\6-31+G(d)\C3H6\YANZ\12-Oct-2023\0\\# ub3lyp/
 6-31+g(d)\\tmpdir/M2_conf_0_19.gjf\\0,1\C,0,0.,0.,0.\C,0,1.4027,0.,0.\
 C,0,2.03436,0.,1.37902\H,0,-0.50761,-0.02284,-0.86662\H,0,-0.43022,-0.
 02501,1.0162\H,0,1.90667,-0.01029,-0.86725\H,0,1.65104,-0.87612,1.9362
 4\H,0,3.12464,0.05592,1.35013\H,0,1.57598,0.81777,1.96567\\Version=ES6
 4L-G16RevA.03\State=1-A\HF=-117.8863597\S2=0.\S2-1=0.\S2A=0.\RMSD=1.87
 2e-09\Dipole=0.1291312,-0.0208294,0.0818209\Quadrupole=0.5861415,-1.60
 53103,1.0191688,0.0773601,-0.4285593,0.0183922\PG=C01 [X(C3H6)]\\@


 ALMOST ALL THE CHEMICAL PROCESSES WHICH OCCUR IN NATURE,
 WHETHER IN ANIMAL OR VEGETABLE ORGANISMS,
 OR IN THE NON-LIVING SURFACE OF THE EARTH ... 
 TAKE PLACE BETWEEN SUBSTANCES IN SOLUTION

                                    -- W. OSTWALD, 1890
 Job cpu time:       0 days  0 hours  0 minutes 29.9 seconds.
 Elapsed time:       0 days  0 hours  0 minutes 15.1 seconds.
 File lengths (MBytes):  RWF=      6 Int=      0 D2E=      0 Chk=      1 Scr=      1
 Normal termination of Gaussian 16 at Thu Oct 12 15:13:34 2023.
