 Entering Gaussian System, Link 0=g16
 Initial command:
 /share/apps/gaussian/g16/l1.exe "/tmp/58286.mgr/Gau-30969.inp" -scrdir="/tmp/58286.mgr/"
 Entering Link 1 = /share/apps/gaussian/g16/l1.exe PID=     30970.
  
 Copyright (c) 1988,1990,1992,1993,1995,1998,2003,2009,2016,
            Gaussian, Inc.  All Rights Reserved.
  
 This is part of the Gaussian(R) 16 program.  It is based on
 the Gaussian(R) 09 system (copyright 2009, Gaussian, Inc.),
 the Gaussian(R) 03 system (copyright 2003, Gaussian, Inc.),
 the Gaussian(R) 98 system (copyright 1998, Gaussian, Inc.),
 the Gaussian(R) 94 system (copyright 1995, Gaussian, Inc.),
 the Gaussian 92(TM) system (copyright 1992, Gaussian, Inc.),
 the Gaussian 90(TM) system (copyright 1990, Gaussian, Inc.),
 the Gaussian 88(TM) system (copyright 1988, Gaussian, Inc.),
 the Gaussian 86(TM) system (copyright 1986, Carnegie Mellon
 University), and the Gaussian 82(TM) system (copyright 1983,
 Carnegie Mellon University). Gaussian is a federally registered
 trademark of Gaussian, Inc.
  
 This software contains proprietary and confidential information,
 including trade secrets, belonging to Gaussian, Inc.
  
 This software is provided under written license and may be
 used, copied, transmitted, or stored only in accord with that
 written license.
  
 The following legend is applicable only to US Government
 contracts under FAR:
  
                    RESTRICTED RIGHTS LEGEND
  
 Use, reproduction and disclosure by the US Government is
 subject to restrictions as set forth in subparagraphs (a)
 and (c) of the Commercial Computer Software - Restricted
 Rights clause in FAR 52.227-19.
  
 Gaussian, Inc.
 340 Quinnipiac St., Bldg. 40, Wallingford CT 06492
  
  
 ---------------------------------------------------------------
 Warning -- This program may not be used in any manner that
 competes with the business of Gaussian, Inc. or will provide
 assistance to any competitor of Gaussian, Inc.  The licensee
 of this program is prohibited from giving any competitor of
 Gaussian, Inc. access to this program.  By using this program,
 the user acknowledges that Gaussian, Inc. is engaged in the
 business of creating and licensing software in the field of
 computational chemistry and represents and warrants to the
 licensee that it is not a competitor of Gaussian, Inc. and that
 it will not use this program in any manner prohibited above.
 ---------------------------------------------------------------
  

 Cite this work as:
 Gaussian 16, Revision A.03,
 M. J. Frisch, G. W. Trucks, H. B. Schlegel, G. E. Scuseria, 
 M. A. Robb, J. R. Cheeseman, G. Scalmani, V. Barone, 
 G. A. Petersson, H. Nakatsuji, X. Li, M. Caricato, A. V. Marenich, 
 J. Bloino, B. G. Janesko, R. Gomperts, B. Mennucci, H. P. Hratchian, 
 J. V. Ortiz, A. F. Izmaylov, J. L. Sonnenberg, D. Williams-Young, 
 F. Ding, F. Lipparini, F. Egidi, J. Goings, B. Peng, A. Petrone, 
 T. Henderson, D. Ranasinghe, V. G. Zakrzewski, J. Gao, N. Rega, 
 G. Zheng, W. Liang, M. Hada, M. Ehara, K. Toyota, R. Fukuda, 
 J. Hasegawa, M. Ishida, T. Nakajima, Y. Honda, O. Kitao, H. Nakai, 
 T. Vreven, K. Throssell, J. A. Montgomery, Jr., J. E. Peralta, 
 F. Ogliaro, M. J. Bearpark, J. J. Heyd, E. N. Brothers, K. N. Kudin, 
 V. N. Staroverov, T. A. Keith, R. Kobayashi, J. Normand, 
 K. Raghavachari, A. P. Rendell, J. C. Burant, S. S. Iyengar, 
 J. Tomasi, M. Cossi, J. M. Millam, M. Klene, C. Adamo, R. Cammi, 
 J. W. Ochterski, R. L. Martin, K. Morokuma, O. Farkas, 
 J. B. Foresman, and D. J. Fox, Gaussian, Inc., Wallingford CT, 2016.
 
 ******************************************
 Gaussian 16:  ES64L-G16RevA.03 25-Dec-2016
                12-Oct-2023 
 ******************************************
 %nprocshared=2
 Will use up to    2 processors via shared memory.
 %mem=2GB
 ------------------
 # ub3lyp/6-31+g(d)
 ------------------
 1/38=1,172=1/1;
 2/12=2,17=6,18=5,40=1/2;
 3/5=1,6=6,7=11,11=2,25=1,30=1,74=-5,116=2/1,2,3;
 4//1;
 5/5=2,38=5/2;
 6/7=2,8=2,9=2,10=2,28=1/1;
 99/5=1,9=1/99;
 -----------------------
 tmpdir/M2_conf_0_17.gjf
 -----------------------
 Symbolic Z-matrix:
 Charge =  0 Multiplicity = 1
 C                     0.        0.        0. 
 C                     1.5035    0.        0. 
 O                    -0.49274   0.       -1.1343 
 H                    -0.59469   0.01029   0.80774 
 H                     1.85048   0.87612  -0.58055 
 H                     1.93127  -0.05592   1.00328 
 H                     1.84598  -0.81777  -0.66104 
 
                          Input orientation:                          
 ---------------------------------------------------------------------
 Center     Atomic      Atomic             Coordinates (Angstroms)
 Number     Number       Type             X           Y           Z
 ---------------------------------------------------------------------
      1          6           0        0.000000    0.000000    0.000000
      2          6           0        1.503500    0.000000    0.000000
      3          8           0       -0.492740    0.000000   -1.134300
      4          1           0       -0.594690    0.010290    0.807740
      5          1           0        1.850480    0.876120   -0.580550
      6          1           0        1.931270   -0.055920    1.003280
      7          1           0        1.845980   -0.817770   -0.661040
 ---------------------------------------------------------------------
                    Distance matrix (angstroms):
                    1          2          3          4          5
     1  C    0.000000
     2  C    1.503500   0.000000
     3  O    1.236701   2.295999   0.000000
     4  H    1.003098   2.248322   1.944741   0.000000
     5  H    2.128121   1.106806   2.562207   2.942085   0.000000
     6  H    2.177040   1.092101   3.232368   2.534382   1.839495
     7  H    2.124468   1.105900   2.522367   2.966457   1.695807
                    6          7
     6  H    0.000000
     7  H    1.832389   0.000000
 Stoichiometry    C2H4O
 Framework group  C1[X(C2H4O)]
 Deg. of freedom    15
 Full point group                 C1      NOp   1
 Largest Abelian subgroup         C1      NOp   1
 Largest concise Abelian subgroup C1      NOp   1
                         Standard orientation:                         
 ---------------------------------------------------------------------
 Center     Atomic      Atomic             Coordinates (Angstroms)
 Number     Number       Type             X           Y           Z
 ---------------------------------------------------------------------
      1          6           0        0.235459    0.497661    0.000061
      2          6           0       -1.131429   -0.128542   -0.000155
      3          8           0        1.155859   -0.328348   -0.001565
      4          1           0        0.439698    1.479678    0.011644
      5          1           0       -1.204653   -0.802101    0.875046
      6          1           0       -1.938221    0.605491   -0.054636
      7          1           0       -1.167872   -0.870998   -0.818962
 ---------------------------------------------------------------------
 Rotational constants (GHZ):          49.1902277          11.1346511           9.5787770
 Standard basis: 6-31+G(d) (6D, 7F)
 There are    65 symmetry adapted cartesian basis functions of A   symmetry.
 There are    65 symmetry adapted basis functions of A   symmetry.
    65 basis functions,   112 primitive gaussians,    65 cartesian basis functions
    12 alpha electrons       12 beta electrons
       nuclear repulsion energy        70.2146284846 Hartrees.
 NAtoms=    7 NActive=    7 NUniq=    7 SFac= 1.00D+00 NAtFMM=   60 NAOKFM=F Big=F
 Integral buffers will be    131072 words long.
 Raffenetti 2 integral format.
 Two-electron integral symmetry is turned on.
 One-electron integrals computed using PRISM.
 NBasis=    65 RedAO= T EigKep=  3.14D-04  NBF=    65
 NBsUse=    65 1.00D-06 EigRej= -1.00D+00 NBFU=    65
 ExpMin= 4.38D-02 ExpMax= 5.48D+03 ExpMxC= 8.25D+02 IAcc=3 IRadAn=         5 AccDes= 0.00D+00
 Harris functional with IExCor=  402 and IRadAn=       5 diagonalized for initial guess.
 HarFok:  IExCor=  402 AccDes= 0.00D+00 IRadAn=         5 IDoV= 1 UseB2=F ITyADJ=14
 ICtDFT=  3500011 ScaDFX=  1.000000  1.000000  1.000000  1.000000
 FoFCou: FMM=F IPFlag=           0 FMFlag=      100000 FMFlg1=           0
         NFxFlg=           0 DoJE=T BraDBF=F KetDBF=T FulRan=T
         wScrn=  0.000000 ICntrl=       500 IOpCl=  0 I1Cent=   200000004 NGrid=           0
         NMat0=    1 NMatS0=      1 NMatT0=    0 NMatD0=    1 NMtDS0=    0 NMtDT0=    0
 Petite list used in FoFCou.
 Initial guess <Sx>= 0.0000 <Sy>= 0.0000 <Sz>= 0.0000 <S**2>= 0.0000 S= 0.0000
 Keep R1 and R2 ints in memory in canonical form, NReq=6379691.
 Requested convergence on RMS density matrix=1.00D-08 within 128 cycles.
 Requested convergence on MAX density matrix=1.00D-06.
 Requested convergence on             energy=1.00D-06.
 No special actions if energy rises.
 SCF Done:  E(UB3LYP) =  -153.823064172     A.U. after   11 cycles
            NFock= 11  Conv=0.22D-08     -V/T= 2.0089
 <Sx>= 0.0000 <Sy>= 0.0000 <Sz>= 0.0000 <S**2>=-0.0000 S=-0.0000
 <L.S>= 0.000000000000E+00
 Annihilation of the first spin contaminant:
 S**2 before annihilation    -0.0000,   after    -0.0000

 **********************************************************************

            Population analysis using the SCF density.

 **********************************************************************

 Orbital symmetries:
 Alpha Orbitals:
       Occupied  (A) (A) (A) (A) (A) (A) (A) (A) (A) (A) (A) (A)
       Virtual   (A) (A) (A) (A) (A) (A) (A) (A) (A) (A) (A) (A)
                 (A) (A) (A) (A) (A) (A) (A) (A) (A) (A) (A) (A)
                 (A) (A) (A) (A) (A) (A) (A) (A) (A) (A) (A) (A)
                 (A) (A) (A) (A) (A) (A) (A) (A) (A) (A) (A) (A)
                 (A) (A) (A) (A) (A)
 Beta  Orbitals:
       Occupied  (A) (A) (A) (A) (A) (A) (A) (A) (A) (A) (A) (A)
       Virtual   (A) (A) (A) (A) (A) (A) (A) (A) (A) (A) (A) (A)
                 (A) (A) (A) (A) (A) (A) (A) (A) (A) (A) (A) (A)
                 (A) (A) (A) (A) (A) (A) (A) (A) (A) (A) (A) (A)
                 (A) (A) (A) (A) (A) (A) (A) (A) (A) (A) (A) (A)
                 (A) (A) (A) (A) (A)
 The electronic state is 1-A.
 Alpha  occ. eigenvalues --  -19.15895 -10.28451 -10.20403  -1.04622  -0.75465
 Alpha  occ. eigenvalues --   -0.61984  -0.48843  -0.44349  -0.44114  -0.41413
 Alpha  occ. eigenvalues --   -0.35600  -0.26572
 Alpha virt. eigenvalues --   -0.05263   0.01047   0.02540   0.04787   0.05047
 Alpha virt. eigenvalues --    0.07431   0.07652   0.09426   0.14139   0.17031
 Alpha virt. eigenvalues --    0.17256   0.20562   0.24290   0.24958   0.26208
 Alpha virt. eigenvalues --    0.28529   0.29542   0.33337   0.38215   0.63518
 Alpha virt. eigenvalues --    0.64196   0.67554   0.67901   0.72958   0.75403
 Alpha virt. eigenvalues --    0.88675   0.95237   1.01828   1.05116   1.08097
 Alpha virt. eigenvalues --    1.17251   1.20276   1.24066   1.32100   1.38259
 Alpha virt. eigenvalues --    1.49982   1.54663   1.72842   1.80125   1.82055
 Alpha virt. eigenvalues --    1.90146   2.08070   2.14536   2.20774   2.25271
 Alpha virt. eigenvalues --    2.29426   2.55145   2.61177   2.83798   2.97905
 Alpha virt. eigenvalues --    4.09731   4.17585   4.39026
  Beta  occ. eigenvalues --  -19.15895 -10.28451 -10.20403  -1.04622  -0.75465
  Beta  occ. eigenvalues --   -0.61984  -0.48843  -0.44349  -0.44114  -0.41413
  Beta  occ. eigenvalues --   -0.35600  -0.26572
  Beta virt. eigenvalues --   -0.05263   0.01047   0.02540   0.04787   0.05047
  Beta virt. eigenvalues --    0.07431   0.07652   0.09426   0.14139   0.17031
  Beta virt. eigenvalues --    0.17256   0.20562   0.24290   0.24958   0.26208
  Beta virt. eigenvalues --    0.28529   0.29542   0.33337   0.38215   0.63518
  Beta virt. eigenvalues --    0.64196   0.67554   0.67901   0.72958   0.75403
  Beta virt. eigenvalues --    0.88675   0.95237   1.01828   1.05116   1.08097
  Beta virt. eigenvalues --    1.17251   1.20276   1.24066   1.32100   1.38259
  Beta virt. eigenvalues --    1.49982   1.54663   1.72842   1.80125   1.82055
  Beta virt. eigenvalues --    1.90146   2.08070   2.14536   2.20774   2.25271
  Beta virt. eigenvalues --    2.29426   2.55145   2.61177   2.83798   2.97905
  Beta virt. eigenvalues --    4.09731   4.17585   4.39026
          Condensed to atoms (all electrons):
               1          2          3          4          5          6
     1  C    4.839890   0.173193   0.452608   0.391009  -0.031673  -0.039867
     2  C    0.173193   5.681141  -0.145784  -0.111032   0.383338   0.359773
     3  O    0.452608  -0.145784   8.151846  -0.063106  -0.010828   0.009687
     4  H    0.391009  -0.111032  -0.063106   0.596062   0.001867   0.005106
     5  H   -0.031673   0.383338  -0.010828   0.001867   0.464688  -0.021681
     6  H   -0.039867   0.359773   0.009687   0.005106  -0.021681   0.512229
     7  H   -0.035594   0.387639  -0.010664   0.002049  -0.028379  -0.022348
               7
     1  C   -0.035594
     2  C    0.387639
     3  O   -0.010664
     4  H    0.002049
     5  H   -0.028379
     6  H   -0.022348
     7  H    0.463519
          Atomic-Atomic Spin Densities.
               1          2          3          4          5          6
     1  C   -0.000000   0.000000   0.000000  -0.000000   0.000000   0.000000
     2  C    0.000000  -0.000000  -0.000000   0.000000  -0.000000   0.000000
     3  O    0.000000  -0.000000  -0.000000   0.000000  -0.000000  -0.000000
     4  H   -0.000000   0.000000   0.000000   0.000000  -0.000000   0.000000
     5  H    0.000000  -0.000000  -0.000000  -0.000000  -0.000000   0.000000
     6  H    0.000000   0.000000  -0.000000   0.000000   0.000000   0.000000
     7  H   -0.000000   0.000000   0.000000   0.000000   0.000000   0.000000
               7
     1  C   -0.000000
     2  C    0.000000
     3  O    0.000000
     4  H    0.000000
     5  H    0.000000
     6  H    0.000000
     7  H    0.000000
 Mulliken charges and spin densities:
               1          2
     1  C    0.250434  -0.000000
     2  C   -0.728267  -0.000000
     3  O   -0.383759   0.000000
     4  H    0.178044   0.000000
     5  H    0.242667  -0.000000
     6  H    0.197101   0.000000
     7  H    0.243778   0.000000
 Sum of Mulliken charges =  -0.00000  -0.00000
 Mulliken charges and spin densities with hydrogens summed into heavy atoms:
               1          2
     1  C    0.428479  -0.000000
     2  C   -0.044720   0.000000
     3  O   -0.383759   0.000000
 Electronic spatial extent (au):  <R**2>=            161.5978
 Charge=              0.0000 electrons
 Dipole moment (field-independent basis, Debye):
    X=             -2.4250    Y=              1.4796    Z=              0.0163  Tot=              2.8408
 Quadrupole moment (field-independent basis, Debye-Ang):
   XX=            -21.7278   YY=            -17.4117   ZZ=            -18.2111
   XY=              1.6830   XZ=              0.0053   YZ=             -0.0295
 Traceless Quadrupole moment (field-independent basis, Debye-Ang):
   XX=             -2.6110   YY=              1.7052   ZZ=              0.9058
   XY=              1.6830   XZ=              0.0053   YZ=             -0.0295
 Octapole moment (field-independent basis, Debye-Ang**2):
  XXX=             -1.3129  YYY=              1.3730  ZZZ=              0.1048  XYY=              0.5277
  XXY=              1.1765  XXZ=             -0.0391  XZZ=              1.1588  YZZ=             -0.8880
  YYZ=             -0.0406  XYZ=              0.0820
 Hexadecapole moment (field-independent basis, Debye-Ang**3):
 XXXX=           -147.6788 YYYY=            -45.4193 ZZZZ=            -24.5695 XXXY=             -1.5646
 XXXZ=              0.1545 YYYX=              1.3075 YYYZ=              0.0877 ZZZX=             -0.1411
 ZZZY=             -0.0903 XXYY=            -29.6408 XXZZ=            -27.7851 YYZZ=            -11.1691
 XXYZ=             -0.1757 YYXZ=              0.0792 ZZXY=              0.7742
 N-N= 7.021462848457D+01 E-N=-4.994442602681D+02  KE= 1.524657189756D+02
                          Isotropic Fermi Contact Couplings
        Atom                 a.u.       MegaHertz       Gauss      10(-4) cm-1
     1  C(13)             -0.00000      -0.00000      -0.00000      -0.00000
     2  C(13)              0.00000       0.00000       0.00000       0.00000
     3  O(17)              0.00000      -0.00000      -0.00000      -0.00000
     4  H(1)               0.00000       0.00000       0.00000       0.00000
     5  H(1)              -0.00000      -0.00000      -0.00000      -0.00000
     6  H(1)               0.00000       0.00000       0.00000       0.00000
     7  H(1)              -0.00000      -0.00000      -0.00000      -0.00000
 --------------------------------------------------------
       Center         ----  Spin Dipole Couplings  ----
                      3XX-RR        3YY-RR        3ZZ-RR
 --------------------------------------------------------
     1   Atom        0.000000      0.000000      0.000000
     2   Atom        0.000000      0.000000      0.000000
     3   Atom        0.000000      0.000000      0.000000
     4   Atom        0.000000      0.000000      0.000000
     5   Atom        0.000000      0.000000      0.000000
     6   Atom        0.000000      0.000000      0.000000
     7   Atom        0.000000      0.000000      0.000000
 --------------------------------------------------------
                        XY            XZ            YZ
 --------------------------------------------------------
     1   Atom        0.000000      0.000000      0.000000
     2   Atom        0.000000      0.000000      0.000000
     3   Atom        0.000000      0.000000      0.000000
     4   Atom        0.000000      0.000000      0.000000
     5   Atom        0.000000      0.000000      0.000000
     6   Atom        0.000000      0.000000      0.000000
     7   Atom        0.000000      0.000000      0.000000
 --------------------------------------------------------


 ---------------------------------------------------------------------------------
              Anisotropic Spin Dipole Couplings in Principal Axis System
 ---------------------------------------------------------------------------------

       Atom             a.u.   MegaHertz   Gauss  10(-4) cm-1        Axes

              Baa     0.0000     0.000     0.000     0.000  1.0000  0.0000  0.0000
     1 C(13)  Bbb     0.0000     0.000     0.000     0.000 -0.0000  1.0000  0.0000
              Bcc     0.0000     0.000     0.000     0.000  0.0000  0.0000  1.0000
 
              Baa     0.0000     0.000     0.000     0.000  1.0000  0.0000  0.0000
     2 C(13)  Bbb     0.0000     0.000     0.000     0.000 -0.0000  1.0000  0.0000
              Bcc     0.0000     0.000     0.000     0.000  0.0000  0.0000  1.0000
 
              Baa     0.0000    -0.000    -0.000    -0.000  1.0000  0.0000  0.0000
     3 O(17)  Bbb     0.0000    -0.000    -0.000    -0.000 -0.0000  1.0000  0.0000
              Bcc     0.0000    -0.000    -0.000    -0.000  0.0000  0.0000  1.0000
 
              Baa     0.0000     0.000     0.000     0.000  1.0000  0.0000  0.0000
     4 H(1)   Bbb     0.0000     0.000     0.000     0.000 -0.0000  1.0000  0.0000
              Bcc     0.0000     0.000     0.000     0.000  0.0000  0.0000  1.0000
 
              Baa     0.0000     0.000     0.000     0.000  1.0000  0.0000  0.0000
     5 H(1)   Bbb     0.0000     0.000     0.000     0.000 -0.0000  1.0000  0.0000
              Bcc     0.0000     0.000     0.000     0.000  0.0000  0.0000  1.0000
 
              Baa     0.0000     0.000     0.000     0.000  1.0000  0.0000  0.0000
     6 H(1)   Bbb     0.0000     0.000     0.000     0.000 -0.0000  1.0000  0.0000
              Bcc     0.0000     0.000     0.000     0.000  0.0000  0.0000  1.0000
 
              Baa     0.0000     0.000     0.000     0.000  1.0000  0.0000  0.0000
     7 H(1)   Bbb     0.0000     0.000     0.000     0.000 -0.0000  1.0000  0.0000
              Bcc     0.0000     0.000     0.000     0.000  0.0000  0.0000  1.0000
 

 ---------------------------------------------------------------------------------

 1\1\GINC-NODE32\SP\UB3LYP\6-31+G(d)\C2H4O1\YANZ\12-Oct-2023\0\\# ub3ly
 p/6-31+g(d)\\tmpdir/M2_conf_0_17.gjf\\0,1\C,0,0.,0.,0.\C,0,1.5035,0.,0
 .\O,0,-0.49274,0.,-1.1343\H,0,-0.59469,0.01029,0.80774\H,0,1.85048,0.8
 7612,-0.58055\H,0,1.93127,-0.05592,1.00328\H,0,1.84598,-0.81777,-0.661
 04\\Version=ES64L-G16RevA.03\State=1-A\HF=-153.8230642\S2=0.\S2-1=0.\S
 2A=0.\RMSD=2.194e-09\Dipole=0.6249321,0.0051011,0.9266225\Quadrupole=-
 0.4369273,0.673496,-0.2365687,0.0084019,-2.0322245,-0.0205155\PG=C01 [
 X(C2H4O1)]\\@


 ... IT CAN BE VERY DIFFICULT, IN THESE COMPLEX TIMES,
 TO UNDERSTAND JUST HOW SCIENTISTS DO WHAT THEY DO.

                     DON MOSER IN THE FEBRUARY 1979 SMITHSONIAN
 Job cpu time:       0 days  0 hours  0 minutes 22.1 seconds.
 Elapsed time:       0 days  0 hours  0 minutes 11.2 seconds.
 File lengths (MBytes):  RWF=      6 Int=      0 D2E=      0 Chk=      1 Scr=      1
 Normal termination of Gaussian 16 at Thu Oct 12 15:13:42 2023.
