 Entering Gaussian System, Link 0=g16
 Initial command:
 /share/apps/gaussian/g16/l1.exe "/tmp/58286.mgr/Gau-30662.inp" -scrdir="/tmp/58286.mgr/"
 Entering Link 1 = /share/apps/gaussian/g16/l1.exe PID=     30666.
  
 Copyright (c) 1988,1990,1992,1993,1995,1998,2003,2009,2016,
            Gaussian, Inc.  All Rights Reserved.
  
 This is part of the Gaussian(R) 16 program.  It is based on
 the Gaussian(R) 09 system (copyright 2009, Gaussian, Inc.),
 the Gaussian(R) 03 system (copyright 2003, Gaussian, Inc.),
 the Gaussian(R) 98 system (copyright 1998, Gaussian, Inc.),
 the Gaussian(R) 94 system (copyright 1995, Gaussian, Inc.),
 the Gaussian 92(TM) system (copyright 1992, Gaussian, Inc.),
 the Gaussian 90(TM) system (copyright 1990, Gaussian, Inc.),
 the Gaussian 88(TM) system (copyright 1988, Gaussian, Inc.),
 the Gaussian 86(TM) system (copyright 1986, Carnegie Mellon
 University), and the Gaussian 82(TM) system (copyright 1983,
 Carnegie Mellon University). Gaussian is a federally registered
 trademark of Gaussian, Inc.
  
 This software contains proprietary and confidential information,
 including trade secrets, belonging to Gaussian, Inc.
  
 This software is provided under written license and may be
 used, copied, transmitted, or stored only in accord with that
 written license.
  
 The following legend is applicable only to US Government
 contracts under FAR:
  
                    RESTRICTED RIGHTS LEGEND
  
 Use, reproduction and disclosure by the US Government is
 subject to restrictions as set forth in subparagraphs (a)
 and (c) of the Commercial Computer Software - Restricted
 Rights clause in FAR 52.227-19.
  
 Gaussian, Inc.
 340 Quinnipiac St., Bldg. 40, Wallingford CT 06492
  
  
 ---------------------------------------------------------------
 Warning -- This program may not be used in any manner that
 competes with the business of Gaussian, Inc. or will provide
 assistance to any competitor of Gaussian, Inc.  The licensee
 of this program is prohibited from giving any competitor of
 Gaussian, Inc. access to this program.  By using this program,
 the user acknowledges that Gaussian, Inc. is engaged in the
 business of creating and licensing software in the field of
 computational chemistry and represents and warrants to the
 licensee that it is not a competitor of Gaussian, Inc. and that
 it will not use this program in any manner prohibited above.
 ---------------------------------------------------------------
  

 Cite this work as:
 Gaussian 16, Revision A.03,
 M. J. Frisch, G. W. Trucks, H. B. Schlegel, G. E. Scuseria, 
 M. A. Robb, J. R. Cheeseman, G. Scalmani, V. Barone, 
 G. A. Petersson, H. Nakatsuji, X. Li, M. Caricato, A. V. Marenich, 
 J. Bloino, B. G. Janesko, R. Gomperts, B. Mennucci, H. P. Hratchian, 
 J. V. Ortiz, A. F. Izmaylov, J. L. Sonnenberg, D. Williams-Young, 
 F. Ding, F. Lipparini, F. Egidi, J. Goings, B. Peng, A. Petrone, 
 T. Henderson, D. Ranasinghe, V. G. Zakrzewski, J. Gao, N. Rega, 
 G. Zheng, W. Liang, M. Hada, M. Ehara, K. Toyota, R. Fukuda, 
 J. Hasegawa, M. Ishida, T. Nakajima, Y. Honda, O. Kitao, H. Nakai, 
 T. Vreven, K. Throssell, J. A. Montgomery, Jr., J. E. Peralta, 
 F. Ogliaro, M. J. Bearpark, J. J. Heyd, E. N. Brothers, K. N. Kudin, 
 V. N. Staroverov, T. A. Keith, R. Kobayashi, J. Normand, 
 K. Raghavachari, A. P. Rendell, J. C. Burant, S. S. Iyengar, 
 J. Tomasi, M. Cossi, J. M. Millam, M. Klene, C. Adamo, R. Cammi, 
 J. W. Ochterski, R. L. Martin, K. Morokuma, O. Farkas, 
 J. B. Foresman, and D. J. Fox, Gaussian, Inc., Wallingford CT, 2016.
 
 ******************************************
 Gaussian 16:  ES64L-G16RevA.03 25-Dec-2016
                12-Oct-2023 
 ******************************************
 %nprocshared=2
 Will use up to    2 processors via shared memory.
 %mem=2GB
 ------------------
 # ub3lyp/6-31+g(d)
 ------------------
 1/38=1,172=1/1;
 2/12=2,17=6,18=5,40=1/2;
 3/5=1,6=6,7=11,11=2,25=1,30=1,74=-5,116=2/1,2,3;
 4//1;
 5/5=2,38=5/2;
 6/7=2,8=2,9=2,10=2,28=1/1;
 99/5=1,9=1/99;
 ----------------------
 tmpdir/M2_conf_0_3.gjf
 ----------------------
 Symbolic Z-matrix:
 Charge =  0 Multiplicity = 1
 C                     0.        0.        0. 
 C                     1.396     0.        0. 
 C                     2.09632   0.        1.20231 
 H                    -0.49301   0.0113    0.87523 
 H                    -0.55011  -0.00425  -0.93763 
 H                     1.9356    0.00049  -0.94257 
 O                     1.49028  -0.00167   2.27436 
 H                     3.18231  -0.00033   1.19681 
 
                          Input orientation:                          
 ---------------------------------------------------------------------
 Center     Atomic      Atomic             Coordinates (Angstroms)
 Number     Number       Type             X           Y           Z
 ---------------------------------------------------------------------
      1          6           0        0.000000    0.000000    0.000000
      2          6           0        1.396000    0.000000    0.000000
      3          6           0        2.096320    0.000000    1.202310
      4          1           0       -0.493010    0.011300    0.875230
      5          1           0       -0.550110   -0.004250   -0.937630
      6          1           0        1.935600    0.000490   -0.942570
      7          8           0        1.490280   -0.001670    2.274360
      8          1           0        3.182310   -0.000330    1.196810
 ---------------------------------------------------------------------
                    Distance matrix (angstroms):
                    1          2          3          4          5
     1  C    0.000000
     2  C    1.396000   0.000000
     3  C    2.416631   1.391401   0.000000
     4  H    1.004596   2.081950   2.609931   0.000000
     5  H    1.087101   2.160211   3.403374   1.813826   0.000000
     6  H    2.152902   1.086097   2.150893   3.033589   2.485719
     7  O    2.719127   2.276314   1.231494   2.427174   3.805270
     8  H    3.399919   2.150176   1.086004   3.689380   4.299629
                    6          7          8
     6  H    0.000000
     7  O    3.247607   0.000000
     8  H    2.476133   2.006011   0.000000
 Stoichiometry    C3H4O
 Framework group  C1[X(C3H4O)]
 Deg. of freedom    18
 Full point group                 C1      NOp   1
 Largest Abelian subgroup         C1      NOp   1
 Largest concise Abelian subgroup C1      NOp   1
                         Standard orientation:                         
 ---------------------------------------------------------------------
 Center     Atomic      Atomic             Coordinates (Angstroms)
 Number     Number       Type             X           Y           Z
 ---------------------------------------------------------------------
      1          6           0       -1.421801   -0.473048   -0.000610
      2          6           0       -0.583966    0.643576    0.000161
      3          6           0        0.798040    0.482155    0.000737
      4          1           0       -1.017621   -1.392683    0.010556
      5          1           0       -2.501943   -0.350329   -0.005311
      6          1           0       -1.014052    1.640888    0.000801
      7          8           0        1.291820   -0.646010   -0.001099
      8          1           0        1.445418    1.354111    0.001006
 ---------------------------------------------------------------------
 Rotational constants (GHZ):          21.4078688           6.9098728           5.2237981
 Standard basis: 6-31+G(d) (6D, 7F)
 There are    84 symmetry adapted cartesian basis functions of A   symmetry.
 There are    84 symmetry adapted basis functions of A   symmetry.
    84 basis functions,   144 primitive gaussians,    84 cartesian basis functions
    15 alpha electrons       15 beta electrons
       nuclear repulsion energy       106.2105710186 Hartrees.
 NAtoms=    8 NActive=    8 NUniq=    8 SFac= 1.00D+00 NAtFMM=   60 NAOKFM=F Big=F
 Integral buffers will be    131072 words long.
 Raffenetti 2 integral format.
 Two-electron integral symmetry is turned on.
 One-electron integrals computed using PRISM.
 NBasis=    84 RedAO= T EigKep=  1.27D-04  NBF=    84
 NBsUse=    84 1.00D-06 EigRej= -1.00D+00 NBFU=    84
 ExpMin= 4.38D-02 ExpMax= 5.48D+03 ExpMxC= 8.25D+02 IAcc=3 IRadAn=         5 AccDes= 0.00D+00
 Harris functional with IExCor=  402 and IRadAn=       5 diagonalized for initial guess.
 HarFok:  IExCor=  402 AccDes= 0.00D+00 IRadAn=         5 IDoV= 1 UseB2=F ITyADJ=14
 ICtDFT=  3500011 ScaDFX=  1.000000  1.000000  1.000000  1.000000
 FoFCou: FMM=F IPFlag=           0 FMFlag=      100000 FMFlg1=           0
         NFxFlg=           0 DoJE=T BraDBF=F KetDBF=T FulRan=T
         wScrn=  0.000000 ICntrl=       500 IOpCl=  0 I1Cent=   200000004 NGrid=           0
         NMat0=    1 NMatS0=      1 NMatT0=    0 NMatD0=    1 NMtDS0=    0 NMtDT0=    0
 Petite list used in FoFCou.
 Initial guess <Sx>= 0.0000 <Sy>= 0.0000 <Sz>= 0.0000 <S**2>=-0.0000 S=-0.0000
 Keep R1 and R2 ints in memory in canonical form, NReq=14566444.
 Requested convergence on RMS density matrix=1.00D-08 within 128 cycles.
 Requested convergence on MAX density matrix=1.00D-06.
 Requested convergence on             energy=1.00D-06.
 No special actions if energy rises.
 SCF Done:  E(UB3LYP) =  -191.905415550     A.U. after   12 cycles
            NFock= 12  Conv=0.14D-08     -V/T= 2.0086
 <Sx>= 0.0000 <Sy>= 0.0000 <Sz>= 0.0000 <S**2>=-0.0000 S=-0.0000
 <L.S>= 0.000000000000E+00
 Annihilation of the first spin contaminant:
 S**2 before annihilation    -0.0000,   after    -0.0000

 **********************************************************************

            Population analysis using the SCF density.

 **********************************************************************

 Orbital symmetries:
 Alpha Orbitals:
       Occupied  (A) (A) (A) (A) (A) (A) (A) (A) (A) (A) (A) (A)
                 (A) (A) (A)
       Virtual   (A) (A) (A) (A) (A) (A) (A) (A) (A) (A) (A) (A)
                 (A) (A) (A) (A) (A) (A) (A) (A) (A) (A) (A) (A)
                 (A) (A) (A) (A) (A) (A) (A) (A) (A) (A) (A) (A)
                 (A) (A) (A) (A) (A) (A) (A) (A) (A) (A) (A) (A)
                 (A) (A) (A) (A) (A) (A) (A) (A) (A) (A) (A) (A)
                 (A) (A) (A) (A) (A) (A) (A) (A) (A)
 Beta  Orbitals:
       Occupied  (A) (A) (A) (A) (A) (A) (A) (A) (A) (A) (A) (A)
                 (A) (A) (A)
       Virtual   (A) (A) (A) (A) (A) (A) (A) (A) (A) (A) (A) (A)
                 (A) (A) (A) (A) (A) (A) (A) (A) (A) (A) (A) (A)
                 (A) (A) (A) (A) (A) (A) (A) (A) (A) (A) (A) (A)
                 (A) (A) (A) (A) (A) (A) (A) (A) (A) (A) (A) (A)
                 (A) (A) (A) (A) (A) (A) (A) (A) (A) (A) (A) (A)
                 (A) (A) (A) (A) (A) (A) (A) (A) (A)
 The electronic state is 1-A.
 Alpha  occ. eigenvalues --  -19.15263 -10.27720 -10.22794 -10.21783  -1.04528
 Alpha  occ. eigenvalues --   -0.80512  -0.68536  -0.56112  -0.52944  -0.45814
 Alpha  occ. eigenvalues --   -0.43188  -0.40712  -0.40164  -0.28741  -0.26762
 Alpha virt. eigenvalues --   -0.09782   0.00585   0.02237   0.03908   0.04177
 Alpha virt. eigenvalues --    0.06099   0.06219   0.07106   0.09412   0.09514
 Alpha virt. eigenvalues --    0.11698   0.12122   0.14038   0.16154   0.19238
 Alpha virt. eigenvalues --    0.22082   0.24686   0.25883   0.26155   0.27037
 Alpha virt. eigenvalues --    0.28834   0.32742   0.32948   0.41212   0.46250
 Alpha virt. eigenvalues --    0.63085   0.64812   0.67689   0.68180   0.70677
 Alpha virt. eigenvalues --    0.71432   0.76613   0.87560   0.90958   0.92469
 Alpha virt. eigenvalues --    0.95891   1.05162   1.07768   1.10519   1.16392
 Alpha virt. eigenvalues --    1.21792   1.26491   1.28680   1.32443   1.33752
 Alpha virt. eigenvalues --    1.40763   1.54252   1.59793   1.63999   1.78539
 Alpha virt. eigenvalues --    1.82546   1.86322   1.95503   1.96821   2.09140
 Alpha virt. eigenvalues --    2.21555   2.24251   2.31321   2.32574   2.53720
 Alpha virt. eigenvalues --    2.56567   2.61518   2.77890   2.99776   3.12826
 Alpha virt. eigenvalues --    4.11117   4.17921   4.27583   4.42845
  Beta  occ. eigenvalues --  -19.15263 -10.27720 -10.22794 -10.21783  -1.04528
  Beta  occ. eigenvalues --   -0.80512  -0.68536  -0.56112  -0.52944  -0.45814
  Beta  occ. eigenvalues --   -0.43188  -0.40712  -0.40164  -0.28741  -0.26762
  Beta virt. eigenvalues --   -0.09782   0.00585   0.02237   0.03908   0.04177
  Beta virt. eigenvalues --    0.06099   0.06219   0.07106   0.09412   0.09514
  Beta virt. eigenvalues --    0.11698   0.12122   0.14038   0.16154   0.19238
  Beta virt. eigenvalues --    0.22082   0.24686   0.25883   0.26155   0.27037
  Beta virt. eigenvalues --    0.28834   0.32742   0.32948   0.41212   0.46250
  Beta virt. eigenvalues --    0.63085   0.64812   0.67689   0.68180   0.70677
  Beta virt. eigenvalues --    0.71432   0.76613   0.87560   0.90958   0.92469
  Beta virt. eigenvalues --    0.95891   1.05162   1.07768   1.10519   1.16392
  Beta virt. eigenvalues --    1.21792   1.26491   1.28680   1.32443   1.33752
  Beta virt. eigenvalues --    1.40763   1.54252   1.59793   1.63999   1.78539
  Beta virt. eigenvalues --    1.82546   1.86322   1.95503   1.96821   2.09140
  Beta virt. eigenvalues --    2.21555   2.24251   2.31321   2.32574   2.53720
  Beta virt. eigenvalues --    2.56567   2.61518   2.77890   2.99776   3.12826
  Beta virt. eigenvalues --    4.11117   4.17921   4.27583   4.42845
          Condensed to atoms (all electrons):
               1          2          3          4          5          6
     1  C    5.110242   0.433846   0.073516   0.410304   0.356465   0.001691
     2  C    0.433846   5.786750  -0.039476  -0.064459  -0.035631   0.265525
     3  C    0.073516  -0.039476   5.007833  -0.003218   0.017119   0.013907
     4  H    0.410304  -0.064459  -0.003218   0.446971  -0.032515   0.004310
     5  H    0.356465  -0.035631   0.017119  -0.032515   0.495597  -0.004174
     6  H    0.001691   0.265525   0.013907   0.004310  -0.004174   0.522751
     7  O    0.032506  -0.228891   0.480427   0.004042   0.001776   0.006344
     8  H    0.027322  -0.207710   0.455907   0.000080  -0.000068   0.001609
               7          8
     1  C    0.032506   0.027322
     2  C   -0.228891  -0.207710
     3  C    0.480427   0.455907
     4  H    0.004042   0.000080
     5  H    0.001776  -0.000068
     6  H    0.006344   0.001609
     7  O    8.196786  -0.067025
     8  H   -0.067025   0.626007
          Atomic-Atomic Spin Densities.
               1          2          3          4          5          6
     1  C   -0.000000   0.000000  -0.000000   0.000000  -0.000000   0.000000
     2  C    0.000000  -0.000000   0.000000  -0.000000   0.000000   0.000000
     3  C   -0.000000   0.000000  -0.000000   0.000000   0.000000  -0.000000
     4  H    0.000000  -0.000000   0.000000  -0.000000   0.000000   0.000000
     5  H   -0.000000   0.000000   0.000000   0.000000   0.000000   0.000000
     6  H    0.000000   0.000000  -0.000000   0.000000   0.000000   0.000000
     7  O   -0.000000   0.000000  -0.000000   0.000000  -0.000000   0.000000
     8  H   -0.000000   0.000000  -0.000000   0.000000   0.000000  -0.000000
               7          8
     1  C   -0.000000  -0.000000
     2  C    0.000000   0.000000
     3  C   -0.000000  -0.000000
     4  H    0.000000   0.000000
     5  H   -0.000000   0.000000
     6  H    0.000000  -0.000000
     7  O    0.000000   0.000000
     8  H    0.000000   0.000000
 Mulliken charges and spin densities:
               1          2
     1  C   -0.445892  -0.000000
     2  C    0.090044  -0.000000
     3  C   -0.006014   0.000000
     4  H    0.234483  -0.000000
     5  H    0.201430   0.000000
     6  H    0.188036   0.000000
     7  O   -0.425965   0.000000
     8  H    0.163877  -0.000000
 Sum of Mulliken charges =  -0.00000   0.00000
 Mulliken charges and spin densities with hydrogens summed into heavy atoms:
               1          2
     1  C   -0.009978  -0.000000
     2  C    0.278080  -0.000000
     3  C    0.157863   0.000000
     7  O   -0.425965   0.000000
 Electronic spatial extent (au):  <R**2>=            256.8189
 Charge=             -0.0000 electrons
 Dipole moment (field-independent basis, Debye):
    X=             -2.3731    Y=              1.8491    Z=              0.0079  Tot=              3.0084
 Quadrupole moment (field-independent basis, Debye-Ang):
   XX=            -24.1800   YY=            -22.6881   ZZ=            -25.2144
   XY=              3.4898   XZ=              0.0076   YZ=             -0.0121
 Traceless Quadrupole moment (field-independent basis, Debye-Ang):
   XX=             -0.1525   YY=              1.3394   ZZ=             -1.1869
   XY=              3.4898   XZ=              0.0076   YZ=             -0.0121
 Octapole moment (field-independent basis, Debye-Ang**2):
  XXX=             -6.9974  YYY=             -0.6123  ZZZ=              0.0031  XYY=             -0.8529
  XXY=              2.7966  XXZ=             -0.0215  XZZ=              3.3476  YZZ=             -1.0918
  YYZ=              0.0315  XYZ=              0.0064
 Hexadecapole moment (field-independent basis, Debye-Ang**3):
 XXXX=           -212.2784 YYYY=            -89.6536 ZZZZ=            -28.4598 XXXY=              6.5457
 XXXZ=              0.0839 YYYX=             -0.4993 YYYZ=             -0.0321 ZZZX=             -0.0038
 ZZZY=             -0.0083 XXYY=            -51.7339 XXZZ=            -43.8962 YYZZ=            -21.1070
 XXYZ=             -0.0101 YYXZ=             -0.0258 ZZXY=             -0.1779
 N-N= 1.062105710186D+02 E-N=-6.596925995552D+02  KE= 1.902658265130D+02
                          Isotropic Fermi Contact Couplings
        Atom                 a.u.       MegaHertz       Gauss      10(-4) cm-1
     1  C(13)              0.00000       0.00000       0.00000       0.00000
     2  C(13)             -0.00000      -0.00000      -0.00000      -0.00000
     3  C(13)             -0.00000      -0.00000      -0.00000      -0.00000
     4  H(1)               0.00000       0.00000       0.00000       0.00000
     5  H(1)               0.00000       0.00000       0.00000       0.00000
     6  H(1)               0.00000       0.00000       0.00000       0.00000
     7  O(17)             -0.00000       0.00000       0.00000       0.00000
     8  H(1)               0.00000       0.00000       0.00000       0.00000
 --------------------------------------------------------
       Center         ----  Spin Dipole Couplings  ----
                      3XX-RR        3YY-RR        3ZZ-RR
 --------------------------------------------------------
     1   Atom       -0.000000     -0.000000      0.000000
     2   Atom       -0.000000      0.000000      0.000000
     3   Atom       -0.000000     -0.000000      0.000000
     4   Atom       -0.000000     -0.000000      0.000000
     5   Atom       -0.000000      0.000000      0.000000
     6   Atom        0.000000     -0.000000      0.000000
     7   Atom       -0.000000      0.000000     -0.000000
     8   Atom       -0.000000      0.000000     -0.000000
 --------------------------------------------------------
                        XY            XZ            YZ
 --------------------------------------------------------
     1   Atom       -0.000000     -0.000000     -0.000000
     2   Atom       -0.000000     -0.000000      0.000000
     3   Atom       -0.000000      0.000000      0.000000
     4   Atom        0.000000     -0.000000     -0.000000
     5   Atom        0.000000      0.000000     -0.000000
     6   Atom       -0.000000     -0.000000      0.000000
     7   Atom       -0.000000      0.000000     -0.000000
     8   Atom        0.000000      0.000000      0.000000
 --------------------------------------------------------


 ---------------------------------------------------------------------------------
              Anisotropic Spin Dipole Couplings in Principal Axis System
 ---------------------------------------------------------------------------------

       Atom             a.u.   MegaHertz   Gauss  10(-4) cm-1        Axes

              Baa    -0.0000    -0.000    -0.000    -0.000  0.7267  0.6712  0.1459
     1 C(13)  Bbb     0.0000     0.000     0.000     0.000 -0.6714  0.7390 -0.0556
              Bcc     0.0000     0.000     0.000     0.000 -0.1451 -0.0575  0.9877
 
              Baa    -0.0000    -0.000    -0.000    -0.000  0.9952  0.0167  0.0965
     2 C(13)  Bbb     0.0000     0.000     0.000     0.000 -0.0639 -0.6353  0.7696
              Bcc     0.0000     0.000     0.000     0.000 -0.0742  0.7721  0.6311
 
              Baa    -0.0000    -0.000    -0.000    -0.000  0.5568  0.8305 -0.0138
     3 C(13)  Bbb     0.0000     0.000     0.000     0.000  0.8298 -0.5569 -0.0373
              Bcc     0.0000     0.000     0.000     0.000  0.0387 -0.0094  0.9992
 
              Baa    -0.0000    -0.000    -0.000    -0.000 -0.6293  0.7771 -0.0109
     4 H(1)   Bbb     0.0000     0.000     0.000     0.000  0.0891  0.0862  0.9923
              Bcc     0.0000     0.000     0.000     0.000  0.7720  0.6235 -0.1235
 
              Baa    -0.0000    -0.000    -0.000    -0.000  0.9983 -0.0572 -0.0056
     5 H(1)   Bbb     0.0000     0.000     0.000     0.000  0.0566  0.9595  0.2761
              Bcc     0.0000     0.000     0.000     0.000 -0.0104 -0.2760  0.9611
 
              Baa    -0.0000    -0.000    -0.000    -0.000  0.2259  0.9713 -0.0742
     6 H(1)   Bbb     0.0000     0.000     0.000     0.000  0.1363  0.0439  0.9897
              Bcc     0.0000     0.000     0.000     0.000  0.9646 -0.2337 -0.1224
 
              Baa    -0.0000     0.000     0.000     0.000  0.9502  0.3103 -0.0291
     7 O(17)  Bbb    -0.0000     0.000     0.000     0.000 -0.0002  0.0941  0.9956
              Bcc     0.0000    -0.000    -0.000    -0.000 -0.3117  0.9460 -0.0894
 
              Baa    -0.0000    -0.000    -0.000    -0.000  0.9570 -0.2431 -0.1585
     8 H(1)   Bbb    -0.0000    -0.000    -0.000    -0.000  0.1387 -0.0966  0.9856
              Bcc     0.0000     0.000     0.000     0.000  0.2549  0.9652  0.0587
 

 ---------------------------------------------------------------------------------

 1\1\GINC-NODE32\SP\UB3LYP\6-31+G(d)\C3H4O1\YANZ\12-Oct-2023\0\\# ub3ly
 p/6-31+g(d)\\tmpdir/M2_conf_0_3.gjf\\0,1\C,0,0.,0.,0.\C,0,1.396,0.,0.\
 C,0,2.09632,0.,1.20231\H,0,-0.49301,0.0113,0.87523\H,0,-0.55011,-0.004
 25,-0.93763\H,0,1.9356,0.00049,-0.94257\O,0,1.49028,-0.00167,2.27436\H
 ,0,3.18231,-0.00033,1.19681\\Version=ES64L-G16RevA.03\State=1-A\HF=-19
 1.9054156\S2=0.\S2-1=0.\S2A=0.\RMSD=1.376e-09\Dipole=0.0215661,0.00327
 93,-1.1834069\Quadrupole=3.087372,-0.8824583,-2.2049138,-0.0060595,0.1
 929405,0.0100374\PG=C01 [X(C3H4O1)]\\@


 IN SO FAR AS QUANTUM MECHANICS IS CORRECT, CHEMICAL 
 QUESTIONS ARE PROBLEMS IN APPLIED MATHEMATICS.

                    -- EYRING, WALTER, & KIMBALL, 1944
 Job cpu time:       0 days  0 hours  0 minutes 38.3 seconds.
 Elapsed time:       0 days  0 hours  0 minutes 19.5 seconds.
 File lengths (MBytes):  RWF=     10 Int=      0 D2E=      0 Chk=      2 Scr=      1
 Normal termination of Gaussian 16 at Thu Oct 12 15:13:19 2023.
