 Entering Gaussian System, Link 0=g16
 Initial command:
 /share/apps/gaussian/g16/l1.exe "/tmp/58286.mgr/Gau-31350.inp" -scrdir="/tmp/58286.mgr/"
 Entering Link 1 = /share/apps/gaussian/g16/l1.exe PID=     31351.
  
 Copyright (c) 1988,1990,1992,1993,1995,1998,2003,2009,2016,
            Gaussian, Inc.  All Rights Reserved.
  
 This is part of the Gaussian(R) 16 program.  It is based on
 the Gaussian(R) 09 system (copyright 2009, Gaussian, Inc.),
 the Gaussian(R) 03 system (copyright 2003, Gaussian, Inc.),
 the Gaussian(R) 98 system (copyright 1998, Gaussian, Inc.),
 the Gaussian(R) 94 system (copyright 1995, Gaussian, Inc.),
 the Gaussian 92(TM) system (copyright 1992, Gaussian, Inc.),
 the Gaussian 90(TM) system (copyright 1990, Gaussian, Inc.),
 the Gaussian 88(TM) system (copyright 1988, Gaussian, Inc.),
 the Gaussian 86(TM) system (copyright 1986, Carnegie Mellon
 University), and the Gaussian 82(TM) system (copyright 1983,
 Carnegie Mellon University). Gaussian is a federally registered
 trademark of Gaussian, Inc.
  
 This software contains proprietary and confidential information,
 including trade secrets, belonging to Gaussian, Inc.
  
 This software is provided under written license and may be
 used, copied, transmitted, or stored only in accord with that
 written license.
  
 The following legend is applicable only to US Government
 contracts under FAR:
  
                    RESTRICTED RIGHTS LEGEND
  
 Use, reproduction and disclosure by the US Government is
 subject to restrictions as set forth in subparagraphs (a)
 and (c) of the Commercial Computer Software - Restricted
 Rights clause in FAR 52.227-19.
  
 Gaussian, Inc.
 340 Quinnipiac St., Bldg. 40, Wallingford CT 06492
  
  
 ---------------------------------------------------------------
 Warning -- This program may not be used in any manner that
 competes with the business of Gaussian, Inc. or will provide
 assistance to any competitor of Gaussian, Inc.  The licensee
 of this program is prohibited from giving any competitor of
 Gaussian, Inc. access to this program.  By using this program,
 the user acknowledges that Gaussian, Inc. is engaged in the
 business of creating and licensing software in the field of
 computational chemistry and represents and warrants to the
 licensee that it is not a competitor of Gaussian, Inc. and that
 it will not use this program in any manner prohibited above.
 ---------------------------------------------------------------
  

 Cite this work as:
 Gaussian 16, Revision A.03,
 M. J. Frisch, G. W. Trucks, H. B. Schlegel, G. E. Scuseria, 
 M. A. Robb, J. R. Cheeseman, G. Scalmani, V. Barone, 
 G. A. Petersson, H. Nakatsuji, X. Li, M. Caricato, A. V. Marenich, 
 J. Bloino, B. G. Janesko, R. Gomperts, B. Mennucci, H. P. Hratchian, 
 J. V. Ortiz, A. F. Izmaylov, J. L. Sonnenberg, D. Williams-Young, 
 F. Ding, F. Lipparini, F. Egidi, J. Goings, B. Peng, A. Petrone, 
 T. Henderson, D. Ranasinghe, V. G. Zakrzewski, J. Gao, N. Rega, 
 G. Zheng, W. Liang, M. Hada, M. Ehara, K. Toyota, R. Fukuda, 
 J. Hasegawa, M. Ishida, T. Nakajima, Y. Honda, O. Kitao, H. Nakai, 
 T. Vreven, K. Throssell, J. A. Montgomery, Jr., J. E. Peralta, 
 F. Ogliaro, M. J. Bearpark, J. J. Heyd, E. N. Brothers, K. N. Kudin, 
 V. N. Staroverov, T. A. Keith, R. Kobayashi, J. Normand, 
 K. Raghavachari, A. P. Rendell, J. C. Burant, S. S. Iyengar, 
 J. Tomasi, M. Cossi, J. M. Millam, M. Klene, C. Adamo, R. Cammi, 
 J. W. Ochterski, R. L. Martin, K. Morokuma, O. Farkas, 
 J. B. Foresman, and D. J. Fox, Gaussian, Inc., Wallingford CT, 2016.
 
 ******************************************
 Gaussian 16:  ES64L-G16RevA.03 25-Dec-2016
                12-Oct-2023 
 ******************************************
 %nprocshared=2
 Will use up to    2 processors via shared memory.
 %mem=2GB
 ------------------
 # ub3lyp/6-31+g(d)
 ------------------
 1/38=1,172=1/1;
 2/12=2,17=6,18=5,40=1/2;
 3/5=1,6=6,7=11,11=2,25=1,30=1,74=-5,116=2/1,2,3;
 4//1;
 5/5=2,38=5/2;
 6/7=2,8=2,9=2,10=2,28=1/1;
 99/5=1,9=1/99;
 -----------------------
 tmpdir/M2_conf_0_53.gjf
 -----------------------
 Symbolic Z-matrix:
 Charge =  0 Multiplicity = 2
 C                     0.        0.        0. 
 H                     1.0869    0.        0. 
 H                    -0.48445   0.       -0.99503 
 H                    -0.53177   0.64123   0.68404 
 
                          Input orientation:                          
 ---------------------------------------------------------------------
 Center     Atomic      Atomic             Coordinates (Angstroms)
 Number     Number       Type             X           Y           Z
 ---------------------------------------------------------------------
      1          6           0        0.000000    0.000000    0.000000
      2          1           0        1.086900    0.000000    0.000000
      3          1           0       -0.484450    0.000000   -0.995030
      4          1           0       -0.531770    0.641230    0.684040
 ---------------------------------------------------------------------
                    Distance matrix (angstroms):
                    1          2          3          4
     1  C    0.000000
     2  H    1.086900   0.000000
     3  H    1.106696   1.859899   0.000000
     4  H    1.077899   1.870609   1.797969   0.000000
 Stoichiometry    CH3(2)
 Framework group  C1[X(CH3)]
 Deg. of freedom     6
 Full point group                 C1      NOp   1
 Largest Abelian subgroup         C1      NOp   1
 Largest concise Abelian subgroup C1      NOp   1
                         Standard orientation:                         
 ---------------------------------------------------------------------
 Center     Atomic      Atomic             Coordinates (Angstroms)
 Number     Number       Type             X           Y           Z
 ---------------------------------------------------------------------
      1          6           0        0.009779   -0.008246   -0.078539
      2          1           0        1.068112   -0.046890    0.165983
      3          1           0       -0.504948    0.945245    0.146599
      4          1           0       -0.621841   -0.848879    0.158650
 ---------------------------------------------------------------------
 Rotational constants (GHZ):         286.5217151         261.6308258         147.4704225
 Standard basis: 6-31+G(d) (6D, 7F)
 There are    25 symmetry adapted cartesian basis functions of A   symmetry.
 There are    25 symmetry adapted basis functions of A   symmetry.
    25 basis functions,    44 primitive gaussians,    25 cartesian basis functions
     5 alpha electrons        4 beta electrons
       nuclear repulsion energy         9.5974996922 Hartrees.
 NAtoms=    4 NActive=    4 NUniq=    4 SFac= 1.00D+00 NAtFMM=   60 NAOKFM=F Big=F
 Integral buffers will be    131072 words long.
 Raffenetti 2 integral format.
 Two-electron integral symmetry is turned on.
 One-electron integrals computed using PRISM.
 NBasis=    25 RedAO= T EigKep=  2.33D-02  NBF=    25
 NBsUse=    25 1.00D-06 EigRej= -1.00D+00 NBFU=    25
 ExpMin= 4.38D-02 ExpMax= 3.05D+03 ExpMxC= 4.57D+02 IAcc=3 IRadAn=         5 AccDes= 0.00D+00
 Harris functional with IExCor=  402 and IRadAn=       5 diagonalized for initial guess.
 HarFok:  IExCor=  402 AccDes= 0.00D+00 IRadAn=         5 IDoV= 1 UseB2=F ITyADJ=14
 ICtDFT=  3500011 ScaDFX=  1.000000  1.000000  1.000000  1.000000
 FoFCou: FMM=F IPFlag=           0 FMFlag=      100000 FMFlg1=           0
         NFxFlg=           0 DoJE=T BraDBF=F KetDBF=T FulRan=T
         wScrn=  0.000000 ICntrl=       500 IOpCl=  0 I1Cent=   200000004 NGrid=           0
         NMat0=    1 NMatS0=      1 NMatT0=    0 NMatD0=    1 NMtDS0=    0 NMtDT0=    0
 Petite list used in FoFCou.
 Initial guess <Sx>= 0.0000 <Sy>= 0.0000 <Sz>= 0.5000 <S**2>= 0.7500 S= 0.5000
 Keep R1 and R2 ints in memory in canonical form, NReq=1830384.
 Requested convergence on RMS density matrix=1.00D-08 within 128 cycles.
 Requested convergence on MAX density matrix=1.00D-06.
 Requested convergence on             energy=1.00D-06.
 No special actions if energy rises.
 SCF Done:  E(UB3LYP) =  -39.8383087762     A.U. after   10 cycles
            NFock= 10  Conv=0.95D-08     -V/T= 2.0111
 <Sx>= 0.0000 <Sy>= 0.0000 <Sz>= 0.5000 <S**2>= 0.7529 S= 0.5014
 <L.S>= 0.000000000000E+00
 Annihilation of the first spin contaminant:
 S**2 before annihilation     0.7529,   after     0.7500

 **********************************************************************

            Population analysis using the SCF density.

 **********************************************************************

 Orbital symmetries:
 Alpha Orbitals:
       Occupied  (A) (A) (A) (A) (A)
       Virtual   (A) (A) (A) (A) (A) (A) (A) (A) (A) (A) (A) (A)
                 (A) (A) (A) (A) (A) (A) (A) (A)
 Beta  Orbitals:
       Occupied  (A) (A) (A) (A)
       Virtual   (A) (A) (A) (A) (A) (A) (A) (A) (A) (A) (A) (A)
                 (A) (A) (A) (A) (A) (A) (A) (A) (A)
 The electronic state is 2-A.
 Alpha  occ. eigenvalues --  -10.20832  -0.69260  -0.42852  -0.41042  -0.24892
 Alpha virt. eigenvalues --    0.01868   0.05861   0.06070   0.07334   0.17605
 Alpha virt. eigenvalues --    0.19189   0.20861   0.63743   0.64085   0.64696
 Alpha virt. eigenvalues --    0.85128   0.92040   0.95470   0.99804   1.63244
 Alpha virt. eigenvalues --    1.63922   1.93708   2.20796   2.24684   4.06021
  Beta  occ. eigenvalues --  -10.19413  -0.65550  -0.41833  -0.40012
  Beta virt. eigenvalues --   -0.08351   0.02344   0.05864   0.06074   0.09775
  Beta virt. eigenvalues --    0.18415   0.20085   0.22273   0.64751   0.65148
  Beta virt. eigenvalues --    0.71408   0.87578   0.92653   0.96264   1.01792
  Beta virt. eigenvalues --    1.68967   1.69966   2.02173   2.22851   2.26586
  Beta virt. eigenvalues --    4.09710
          Condensed to atoms (all electrons):
               1          2          3          4
     1  C    5.466105   0.373261   0.368952   0.371454
     2  H    0.373261   0.484015  -0.027827  -0.025810
     3  H    0.368952  -0.027827   0.504176  -0.033268
     4  H    0.371454  -0.025810  -0.033268   0.492178
          Atomic-Atomic Spin Densities.
               1          2          3          4
     1  C    1.165875  -0.013033  -0.012707  -0.013259
     2  H   -0.013033  -0.031678   0.001759   0.001657
     3  H   -0.012707   0.001759  -0.034392   0.002051
     4  H   -0.013259   0.001657   0.002051  -0.032743
 Mulliken charges and spin densities:
               1          2
     1  C   -0.579772   1.126877
     2  H    0.196361  -0.041295
     3  H    0.187966  -0.043289
     4  H    0.195445  -0.042293
 Sum of Mulliken charges =  -0.00000   1.00000
 Mulliken charges and spin densities with hydrogens summed into heavy atoms:
               1          2
     1  C   -0.000000   1.000000
 Electronic spatial extent (au):  <R**2>=             30.4395
 Charge=             -0.0000 electrons
 Dipole moment (field-independent basis, Debye):
    X=             -0.0262    Y=              0.0058    Z=              0.5321  Tot=              0.5328
 Quadrupole moment (field-independent basis, Debye-Ang):
   XX=             -7.3002   YY=             -7.6299   ZZ=             -9.1479
   XY=              0.0396   XZ=              0.0045   YZ=             -0.0067
 Traceless Quadrupole moment (field-independent basis, Debye-Ang):
   XX=              0.7258   YY=              0.3961   ZZ=             -1.1219
   XY=              0.0396   XZ=              0.0045   YZ=             -0.0067
 Octapole moment (field-independent basis, Debye-Ang**2):
  XXX=              0.6860  YYY=              0.1210  ZZZ=              0.9175  XYY=             -0.7293
  XXY=             -0.1360  XXZ=              0.5430  XZZ=             -0.0176  YZZ=             -0.0152
  YYZ=              0.4874  XYZ=              0.0059
 Hexadecapole moment (field-independent basis, Debye-Ang**3):
 XXXX=            -15.8688 YYYY=            -16.0412 ZZZZ=            -13.7138 XXXY=              0.1295
 XXXZ=              0.2188 YYYX=              0.0328 YYYZ=              0.0081 ZZZX=              0.0205
 ZZZY=             -0.0336 XXYY=             -5.2738 XXZZ=             -5.1764 YYZZ=             -5.1551
 XXYZ=             -0.0455 YYXZ=             -0.1855 ZZXY=              0.0303
 N-N= 9.597499692216D+00 E-N=-1.108442987462D+02  KE= 3.940142317250D+01
                          Isotropic Fermi Contact Couplings
        Atom                 a.u.       MegaHertz       Gauss      10(-4) cm-1
     1  C(13)              0.20449     229.88410      82.02836      76.68108
     2  H(1)              -0.00992     -44.33443     -15.81963     -14.78838
     3  H(1)              -0.01058     -47.29737     -16.87688     -15.77671
     4  H(1)              -0.01016     -45.39402     -16.19772     -15.14182
 --------------------------------------------------------
       Center         ----  Spin Dipole Couplings  ----
                      3XX-RR        3YY-RR        3ZZ-RR
 --------------------------------------------------------
     1   Atom       -0.508646     -0.503568      1.012214
     2   Atom        0.067851     -0.065297     -0.002554
     3   Atom       -0.033858      0.037839     -0.003981
     4   Atom       -0.017768      0.019695     -0.001927
 --------------------------------------------------------
                        XY            XZ            YZ
 --------------------------------------------------------
     1   Atom       -0.001436     -0.009795      0.011795
     2   Atom       -0.004824      0.020769     -0.000180
     3   Atom       -0.054795     -0.009688      0.017481
     4   Atom        0.065110     -0.013327     -0.016307
 --------------------------------------------------------


 ---------------------------------------------------------------------------------
              Anisotropic Spin Dipole Couplings in Principal Axis System
 ---------------------------------------------------------------------------------

       Atom             a.u.   MegaHertz   Gauss  10(-4) cm-1        Axes

              Baa    -0.5091   -68.310   -24.375   -22.786  0.9696  0.2445  0.0043
     1 C(13)  Bbb    -0.5033   -67.540   -24.100   -22.529 -0.2445  0.9696 -0.0091
              Bcc     1.0124   135.850    48.475    45.315 -0.0064  0.0078  0.9999
 
              Baa    -0.0655   -34.935   -12.466   -11.653  0.0376  0.9992 -0.0096
     2 H(1)   Bbb    -0.0082    -4.377    -1.562    -1.460 -0.2623  0.0191  0.9648
              Bcc     0.0737    39.312    14.028    13.113  0.9643 -0.0338  0.2628
 
              Baa    -0.0635   -33.875   -12.088   -11.300  0.8799  0.4752  0.0037
     3 H(1)   Bbb    -0.0092    -4.904    -1.750    -1.636  0.1167 -0.2237  0.9677
              Bcc     0.0727    38.779    13.837    12.935 -0.4606  0.8510  0.2523
 
              Baa    -0.0668   -35.641   -12.717   -11.888  0.8001 -0.5997  0.0136
     4 H(1)   Bbb    -0.0077    -4.114    -1.468    -1.372  0.1487  0.2203  0.9640
              Bcc     0.0745    39.754    14.185    13.261  0.5811  0.7693 -0.2654
 

 ---------------------------------------------------------------------------------

 1\1\GINC-NODE32\SP\UB3LYP\6-31+G(d)\C1H3(2)\YANZ\12-Oct-2023\0\\# ub3l
 yp/6-31+g(d)\\tmpdir/M2_conf_0_53.gjf\\0,2\C,0,0.,0.,0.\H,0,1.0869,0.,
 0.\H,0,-0.48445,0.,-0.99503\H,0,-0.53177,0.64123,0.68404\\Version=ES64
 L-G16RevA.03\State=2-A\HF=-39.8383088\S2=0.752887\S2-1=0.\S2A=0.750005
 \RMSD=9.531e-09\Dipole=0.0369743,0.1930114,-0.0728927\Quadrupole=0.469
 2994,-0.631336,0.1620366,-0.2916899,0.0684998,0.3541547\PG=C01 [X(C1H3
 )]\\@


 THERE'S SMALL CHOICE IN A BOWL OF ROTTEN APPLES.
                     SHAKESPEARE
 Job cpu time:       0 days  0 hours  0 minutes  6.0 seconds.
 Elapsed time:       0 days  0 hours  0 minutes  3.1 seconds.
 File lengths (MBytes):  RWF=      6 Int=      0 D2E=      0 Chk=      1 Scr=      1
 Normal termination of Gaussian 16 at Thu Oct 12 15:14:22 2023.
