 Entering Gaussian System, Link 0=g16
 Initial command:
 /share/apps/gaussian/g16/l1.exe "/tmp/58286.mgr/Gau-30983.inp" -scrdir="/tmp/58286.mgr/"
 Entering Link 1 = /share/apps/gaussian/g16/l1.exe PID=     30984.
  
 Copyright (c) 1988,1990,1992,1993,1995,1998,2003,2009,2016,
            Gaussian, Inc.  All Rights Reserved.
  
 This is part of the Gaussian(R) 16 program.  It is based on
 the Gaussian(R) 09 system (copyright 2009, Gaussian, Inc.),
 the Gaussian(R) 03 system (copyright 2003, Gaussian, Inc.),
 the Gaussian(R) 98 system (copyright 1998, Gaussian, Inc.),
 the Gaussian(R) 94 system (copyright 1995, Gaussian, Inc.),
 the Gaussian 92(TM) system (copyright 1992, Gaussian, Inc.),
 the Gaussian 90(TM) system (copyright 1990, Gaussian, Inc.),
 the Gaussian 88(TM) system (copyright 1988, Gaussian, Inc.),
 the Gaussian 86(TM) system (copyright 1986, Carnegie Mellon
 University), and the Gaussian 82(TM) system (copyright 1983,
 Carnegie Mellon University). Gaussian is a federally registered
 trademark of Gaussian, Inc.
  
 This software contains proprietary and confidential information,
 including trade secrets, belonging to Gaussian, Inc.
  
 This software is provided under written license and may be
 used, copied, transmitted, or stored only in accord with that
 written license.
  
 The following legend is applicable only to US Government
 contracts under FAR:
  
                    RESTRICTED RIGHTS LEGEND
  
 Use, reproduction and disclosure by the US Government is
 subject to restrictions as set forth in subparagraphs (a)
 and (c) of the Commercial Computer Software - Restricted
 Rights clause in FAR 52.227-19.
  
 Gaussian, Inc.
 340 Quinnipiac St., Bldg. 40, Wallingford CT 06492
  
  
 ---------------------------------------------------------------
 Warning -- This program may not be used in any manner that
 competes with the business of Gaussian, Inc. or will provide
 assistance to any competitor of Gaussian, Inc.  The licensee
 of this program is prohibited from giving any competitor of
 Gaussian, Inc. access to this program.  By using this program,
 the user acknowledges that Gaussian, Inc. is engaged in the
 business of creating and licensing software in the field of
 computational chemistry and represents and warrants to the
 licensee that it is not a competitor of Gaussian, Inc. and that
 it will not use this program in any manner prohibited above.
 ---------------------------------------------------------------
  

 Cite this work as:
 Gaussian 16, Revision A.03,
 M. J. Frisch, G. W. Trucks, H. B. Schlegel, G. E. Scuseria, 
 M. A. Robb, J. R. Cheeseman, G. Scalmani, V. Barone, 
 G. A. Petersson, H. Nakatsuji, X. Li, M. Caricato, A. V. Marenich, 
 J. Bloino, B. G. Janesko, R. Gomperts, B. Mennucci, H. P. Hratchian, 
 J. V. Ortiz, A. F. Izmaylov, J. L. Sonnenberg, D. Williams-Young, 
 F. Ding, F. Lipparini, F. Egidi, J. Goings, B. Peng, A. Petrone, 
 T. Henderson, D. Ranasinghe, V. G. Zakrzewski, J. Gao, N. Rega, 
 G. Zheng, W. Liang, M. Hada, M. Ehara, K. Toyota, R. Fukuda, 
 J. Hasegawa, M. Ishida, T. Nakajima, Y. Honda, O. Kitao, H. Nakai, 
 T. Vreven, K. Throssell, J. A. Montgomery, Jr., J. E. Peralta, 
 F. Ogliaro, M. J. Bearpark, J. J. Heyd, E. N. Brothers, K. N. Kudin, 
 V. N. Staroverov, T. A. Keith, R. Kobayashi, J. Normand, 
 K. Raghavachari, A. P. Rendell, J. C. Burant, S. S. Iyengar, 
 J. Tomasi, M. Cossi, J. M. Millam, M. Klene, C. Adamo, R. Cammi, 
 J. W. Ochterski, R. L. Martin, K. Morokuma, O. Farkas, 
 J. B. Foresman, and D. J. Fox, Gaussian, Inc., Wallingford CT, 2016.
 
 ******************************************
 Gaussian 16:  ES64L-G16RevA.03 25-Dec-2016
                12-Oct-2023 
 ******************************************
 %nprocshared=2
 Will use up to    2 processors via shared memory.
 %mem=2GB
 ------------------
 # ub3lyp/6-31+g(d)
 ------------------
 1/38=1,172=1/1;
 2/12=2,17=6,18=5,40=1/2;
 3/5=1,6=6,7=11,11=2,25=1,30=1,74=-5,116=2/1,2,3;
 4//1;
 5/5=2,38=5/2;
 6/7=2,8=2,9=2,10=2,28=1/1;
 99/5=1,9=1/99;
 -----------------------
 tmpdir/M2_conf_0_20.gjf
 -----------------------
 Symbolic Z-matrix:
 Charge =  0 Multiplicity = 1
 C                     0.        0.        0. 
 C                     1.3857    0.        0. 
 C                     2.26068   0.        1.23899 
 O                    -0.60661   0.0144   -1.07164 
 H                    -0.5465   -0.01115   0.93968 
 O                     2.00704   0.01456  -1.06918 
 H                     2.9259    0.88344   1.19398 
 H                     1.68857  -0.06869   2.1667 
 H                     3.00667  -0.80928   1.13143 
 
                          Input orientation:                          
 ---------------------------------------------------------------------
 Center     Atomic      Atomic             Coordinates (Angstroms)
 Number     Number       Type             X           Y           Z
 ---------------------------------------------------------------------
      1          6           0        0.000000    0.000000    0.000000
      2          6           0        1.385700    0.000000    0.000000
      3          6           0        2.260680    0.000000    1.238990
      4          8           0       -0.606610    0.014400   -1.071640
      5          1           0       -0.546500   -0.011150    0.939680
      6          8           0        2.007040    0.014560   -1.069180
      7          1           0        2.925900    0.883440    1.193980
      8          1           0        1.688570   -0.068690    2.166700
      9          1           0        3.006670   -0.809280    1.131430
 ---------------------------------------------------------------------
                    Distance matrix (angstroms):
                    1          2          3          4          5
     1  C    0.000000
     2  C    1.385700   0.000000
     3  C    2.577939   1.516801   0.000000
     4  O    1.231501   2.262282   3.682468   0.000000
     5  H    1.087099   2.148609   2.823114   2.012380   0.000000
     6  O    2.274108   1.236698   2.322110   2.613651   3.249115
     7  H    3.281302   2.139689   1.106802   4.285661   3.594791
     8  H    2.747831   2.188844   1.092096   3.970088   2.550378
     9  H    3.312874   2.136027   1.105895   4.311352   3.646752
                    6          7          8          9
     6  O    0.000000
     7  H    2.592518   0.000000
     8  H    3.252579   1.839489   0.000000
     9  H    2.553558   1.695800   1.832388   0.000000
 Stoichiometry    C3H4O2
 Framework group  C1[X(C3H4O2)]
 Deg. of freedom    21
 Full point group                 C1      NOp   1
 Largest Abelian subgroup         C1      NOp   1
 Largest concise Abelian subgroup C1      NOp   1
                         Standard orientation:                         
 ---------------------------------------------------------------------
 Center     Atomic      Atomic             Coordinates (Angstroms)
 Number     Number       Type             X           Y           Z
 ---------------------------------------------------------------------
      1          6           0       -0.846161   -0.642905   -0.002402
      2          6           0        0.339515    0.074261   -0.005792
      3          6           0        1.729429   -0.532990    0.002671
      4          8           0       -1.919866   -0.039823    0.004310
      5          1           0       -0.827419   -1.729841   -0.004172
      6          8           0        0.317779    1.310761   -0.001904
      7          1           0        2.273266   -0.142608    0.884063
      8          1           0        1.720197   -1.623433   -0.056677
      9          1           0        2.313959   -0.061826   -0.809323
 ---------------------------------------------------------------------
 Rotational constants (GHZ):          11.7907460           4.1488792           3.1240702
 Standard basis: 6-31+G(d) (6D, 7F)
 There are   103 symmetry adapted cartesian basis functions of A   symmetry.
 There are   103 symmetry adapted basis functions of A   symmetry.
   103 basis functions,   176 primitive gaussians,   103 cartesian basis functions
    19 alpha electrons       19 beta electrons
       nuclear repulsion energy       162.1490222882 Hartrees.
 NAtoms=    9 NActive=    9 NUniq=    9 SFac= 1.00D+00 NAtFMM=   60 NAOKFM=F Big=F
 Integral buffers will be    131072 words long.
 Raffenetti 2 integral format.
 Two-electron integral symmetry is turned on.
 One-electron integrals computed using PRISM.
 NBasis=   103 RedAO= T EigKep=  6.74D-05  NBF=   103
 NBsUse=   103 1.00D-06 EigRej= -1.00D+00 NBFU=   103
 ExpMin= 4.38D-02 ExpMax= 5.48D+03 ExpMxC= 8.25D+02 IAcc=3 IRadAn=         5 AccDes= 0.00D+00
 Harris functional with IExCor=  402 and IRadAn=       5 diagonalized for initial guess.
 HarFok:  IExCor=  402 AccDes= 0.00D+00 IRadAn=         5 IDoV= 1 UseB2=F ITyADJ=14
 ICtDFT=  3500011 ScaDFX=  1.000000  1.000000  1.000000  1.000000
 FoFCou: FMM=F IPFlag=           0 FMFlag=      100000 FMFlg1=           0
         NFxFlg=           0 DoJE=T BraDBF=F KetDBF=T FulRan=T
         wScrn=  0.000000 ICntrl=       500 IOpCl=  0 I1Cent=   200000004 NGrid=           0
         NMat0=    1 NMatS0=      1 NMatT0=    0 NMatD0=    1 NMtDS0=    0 NMtDT0=    0
 Petite list used in FoFCou.
 Initial guess <Sx>= 0.0000 <Sy>= 0.0000 <Sz>= 0.0000 <S**2>=-0.0000 S=-0.0000
 Keep R1 and R2 ints in memory in canonical form, NReq=30543755.
 Requested convergence on RMS density matrix=1.00D-08 within 128 cycles.
 Requested convergence on MAX density matrix=1.00D-06.
 Requested convergence on             energy=1.00D-06.
 No special actions if energy rises.
 SCF Done:  E(UB3LYP) =  -267.132402399     A.U. after   12 cycles
            NFock= 12  Conv=0.25D-08     -V/T= 2.0086
 <Sx>= 0.0000 <Sy>= 0.0000 <Sz>= 0.0000 <S**2>=-0.0000 S=-0.0000
 <L.S>= 0.000000000000E+00
 Annihilation of the first spin contaminant:
 S**2 before annihilation    -0.0000,   after     0.0000

 **********************************************************************

            Population analysis using the SCF density.

 **********************************************************************

 Orbital symmetries:
 Alpha Orbitals:
       Occupied  (A) (A) (A) (A) (A) (A) (A) (A) (A) (A) (A) (A)
                 (A) (A) (A) (A) (A) (A) (A)
       Virtual   (A) (A) (A) (A) (A) (A) (A) (A) (A) (A) (A) (A)
                 (A) (A) (A) (A) (A) (A) (A) (A) (A) (A) (A) (A)
                 (A) (A) (A) (A) (A) (A) (A) (A) (A) (A) (A) (A)
                 (A) (A) (A) (A) (A) (A) (A) (A) (A) (A) (A) (A)
                 (A) (A) (A) (A) (A) (A) (A) (A) (A) (A) (A) (A)
                 (A) (A) (A) (A) (A) (A) (A) (A) (A) (A) (A) (A)
                 (A) (A) (A) (A) (A) (A) (A) (A) (A) (A) (A) (A)
 Beta  Orbitals:
       Occupied  (A) (A) (A) (A) (A) (A) (A) (A) (A) (A) (A) (A)
                 (A) (A) (A) (A) (A) (A) (A)
       Virtual   (A) (A) (A) (A) (A) (A) (A) (A) (A) (A) (A) (A)
                 (A) (A) (A) (A) (A) (A) (A) (A) (A) (A) (A) (A)
                 (A) (A) (A) (A) (A) (A) (A) (A) (A) (A) (A) (A)
                 (A) (A) (A) (A) (A) (A) (A) (A) (A) (A) (A) (A)
                 (A) (A) (A) (A) (A) (A) (A) (A) (A) (A) (A) (A)
                 (A) (A) (A) (A) (A) (A) (A) (A) (A) (A) (A) (A)
                 (A) (A) (A) (A) (A) (A) (A) (A) (A) (A) (A) (A)
 The electronic state is 1-A.
 Alpha  occ. eigenvalues --  -19.19834 -19.17970 -10.30576 -10.30335 -10.21917
 Alpha  occ. eigenvalues --   -1.09463  -1.05334  -0.79259  -0.71715  -0.57303
 Alpha  occ. eigenvalues --   -0.51570  -0.48744  -0.47788  -0.44077  -0.43463
 Alpha  occ. eigenvalues --   -0.41810  -0.36415  -0.30674  -0.28213
 Alpha virt. eigenvalues --   -0.14017  -0.00560   0.01853   0.02022   0.03628
 Alpha virt. eigenvalues --    0.05226   0.05634   0.06238   0.07592   0.08940
 Alpha virt. eigenvalues --    0.09958   0.12086   0.12922   0.14406   0.17119
 Alpha virt. eigenvalues --    0.19402   0.20427   0.23723   0.23982   0.24788
 Alpha virt. eigenvalues --    0.25478   0.25943   0.28573   0.29165   0.30193
 Alpha virt. eigenvalues --    0.34795   0.36304   0.40169   0.41947   0.52696
 Alpha virt. eigenvalues --    0.59976   0.62859   0.64749   0.65892   0.70281
 Alpha virt. eigenvalues --    0.73097   0.78003   0.82805   0.84104   0.88376
 Alpha virt. eigenvalues --    0.98257   1.00431   1.07802   1.10091   1.11147
 Alpha virt. eigenvalues --    1.15286   1.17304   1.23566   1.27105   1.27962
 Alpha virt. eigenvalues --    1.31994   1.36334   1.36759   1.39698   1.52234
 Alpha virt. eigenvalues --    1.55173   1.67002   1.72467   1.73898   1.77412
 Alpha virt. eigenvalues --    1.79473   1.83912   1.93996   1.95720   2.00093
 Alpha virt. eigenvalues --    2.05791   2.07456   2.20791   2.23981   2.33242
 Alpha virt. eigenvalues --    2.35698   2.42113   2.47547   2.58950   2.66985
 Alpha virt. eigenvalues --    2.81845   2.96103   3.09397   3.24278   4.02208
 Alpha virt. eigenvalues --    4.16558   4.28524   4.34293   4.61536
  Beta  occ. eigenvalues --  -19.19834 -19.17970 -10.30576 -10.30335 -10.21917
  Beta  occ. eigenvalues --   -1.09463  -1.05334  -0.79259  -0.71715  -0.57303
  Beta  occ. eigenvalues --   -0.51570  -0.48744  -0.47788  -0.44077  -0.43463
  Beta  occ. eigenvalues --   -0.41810  -0.36415  -0.30674  -0.28213
  Beta virt. eigenvalues --   -0.14017  -0.00560   0.01853   0.02022   0.03628
  Beta virt. eigenvalues --    0.05226   0.05634   0.06238   0.07592   0.08940
  Beta virt. eigenvalues --    0.09958   0.12086   0.12922   0.14406   0.17119
  Beta virt. eigenvalues --    0.19402   0.20427   0.23723   0.23982   0.24788
  Beta virt. eigenvalues --    0.25478   0.25943   0.28573   0.29165   0.30193
  Beta virt. eigenvalues --    0.34795   0.36304   0.40169   0.41947   0.52696
  Beta virt. eigenvalues --    0.59976   0.62859   0.64749   0.65892   0.70281
  Beta virt. eigenvalues --    0.73097   0.78003   0.82805   0.84104   0.88376
  Beta virt. eigenvalues --    0.98257   1.00431   1.07802   1.10091   1.11147
  Beta virt. eigenvalues --    1.15286   1.17304   1.23566   1.27105   1.27962
  Beta virt. eigenvalues --    1.31994   1.36334   1.36759   1.39698   1.52234
  Beta virt. eigenvalues --    1.55173   1.67002   1.72467   1.73898   1.77412
  Beta virt. eigenvalues --    1.79473   1.83912   1.93996   1.95720   2.00093
  Beta virt. eigenvalues --    2.05791   2.07456   2.20791   2.23981   2.33242
  Beta virt. eigenvalues --    2.35698   2.42113   2.47547   2.58950   2.66985
  Beta virt. eigenvalues --    2.81845   2.96103   3.09397   3.24278   4.02208
  Beta virt. eigenvalues --    4.16558   4.28524   4.34293   4.61536
          Condensed to atoms (all electrons):
               1          2          3          4          5          6
     1  C    6.474298  -0.924296  -0.423533   0.553163   0.368534  -0.153665
     2  C   -0.924296   6.426285  -0.087599  -0.246232  -0.151691   0.602177
     3  C   -0.423533  -0.087599   6.280548   0.045596   0.064239  -0.201974
     4  O    0.553163  -0.246232   0.045596   8.010255  -0.054332  -0.007457
     5  H    0.368534  -0.151691   0.064239  -0.054332   0.586867   0.003871
     6  O   -0.153665   0.602177  -0.201974  -0.007457   0.003871   8.131404
     7  H   -0.008943  -0.013677   0.372932  -0.000280  -0.000029  -0.008171
     8  H    0.071487  -0.113466   0.366439   0.000421   0.000166   0.009759
     9  H   -0.005787  -0.020472   0.376987  -0.000320  -0.000036  -0.007910
               7          8          9
     1  C   -0.008943   0.071487  -0.005787
     2  C   -0.013677  -0.113466  -0.020472
     3  C    0.372932   0.366439   0.376987
     4  O   -0.000280   0.000421  -0.000320
     5  H   -0.000029   0.000166  -0.000036
     6  O   -0.008171   0.009759  -0.007910
     7  H    0.455489  -0.020428  -0.027261
     8  H   -0.020428   0.505668  -0.021173
     9  H   -0.027261  -0.021173   0.455107
          Atomic-Atomic Spin Densities.
               1          2          3          4          5          6
     1  C    0.000000  -0.000000  -0.000000   0.000000   0.000000  -0.000000
     2  C   -0.000000   0.000000  -0.000000  -0.000000  -0.000000   0.000000
     3  C   -0.000000  -0.000000   0.000000  -0.000000  -0.000000  -0.000000
     4  O    0.000000  -0.000000  -0.000000  -0.000000  -0.000000   0.000000
     5  H    0.000000  -0.000000  -0.000000  -0.000000  -0.000000   0.000000
     6  O   -0.000000   0.000000  -0.000000   0.000000   0.000000  -0.000000
     7  H   -0.000000   0.000000  -0.000000   0.000000  -0.000000  -0.000000
     8  H   -0.000000  -0.000000   0.000000   0.000000  -0.000000   0.000000
     9  H    0.000000  -0.000000   0.000000  -0.000000  -0.000000   0.000000
               7          8          9
     1  C   -0.000000  -0.000000   0.000000
     2  C    0.000000  -0.000000  -0.000000
     3  C   -0.000000   0.000000   0.000000
     4  O    0.000000   0.000000  -0.000000
     5  H   -0.000000  -0.000000  -0.000000
     6  O   -0.000000   0.000000   0.000000
     7  H    0.000000  -0.000000   0.000000
     8  H   -0.000000   0.000000   0.000000
     9  H    0.000000   0.000000   0.000000
 Mulliken charges and spin densities:
               1          2
     1  C    0.048742   0.000000
     2  C    0.528970  -0.000000
     3  C   -0.793636   0.000000
     4  O   -0.300814  -0.000000
     5  H    0.182411  -0.000000
     6  O   -0.368034   0.000000
     7  H    0.250368  -0.000000
     8  H    0.201129   0.000000
     9  H    0.250865   0.000000
 Sum of Mulliken charges =  -0.00000  -0.00000
 Mulliken charges and spin densities with hydrogens summed into heavy atoms:
               1          2
     1  C    0.231153   0.000000
     2  C    0.528970  -0.000000
     3  C   -0.091274   0.000000
     4  O   -0.300814  -0.000000
     6  O   -0.368034   0.000000
 Electronic spatial extent (au):  <R**2>=            398.0165
 Charge=             -0.0000 electrons
 Dipole moment (field-independent basis, Debye):
    X=              2.6688    Y=             -3.4584    Z=             -0.0035  Tot=              4.3685
 Quadrupole moment (field-independent basis, Debye-Ang):
   XX=            -32.2372   YY=            -31.1783   ZZ=            -27.8204
   XY=              0.5051   XZ=              0.0600   YZ=              0.0349
 Traceless Quadrupole moment (field-independent basis, Debye-Ang):
   XX=             -1.8252   YY=             -0.7663   ZZ=              2.5915
   XY=              0.5051   XZ=              0.0600   YZ=              0.0349
 Octapole moment (field-independent basis, Debye-Ang**2):
  XXX=             12.3667  YYY=             -4.7462  ZZZ=              0.1314  XYY=             -3.8749
  XXY=              1.3514  XXZ=              0.0461  XZZ=             -1.2600  YZZ=              1.8946
  YYZ=             -0.1295  XYZ=              0.0017
 Hexadecapole moment (field-independent basis, Debye-Ang**3):
 XXXX=           -354.1595 YYYY=           -135.0769 ZZZZ=            -32.8255 XXXY=              3.5727
 XXXZ=              0.2235 YYYX=              1.6241 YYYZ=              0.2677 ZZZX=              0.2913
 ZZZY=             -0.0121 XXYY=            -80.3802 XXZZ=            -58.0611 YYZZ=            -28.4223
 XXYZ=             -0.0645 YYXZ=             -0.2325 ZZXY=              1.9688
 N-N= 1.621490222882D+02 E-N=-9.488362233156D+02  KE= 2.648643127960D+02
                          Isotropic Fermi Contact Couplings
        Atom                 a.u.       MegaHertz       Gauss      10(-4) cm-1
     1  C(13)              0.00000       0.00000       0.00000       0.00000
     2  C(13)             -0.00000      -0.00000      -0.00000      -0.00000
     3  C(13)              0.00000       0.00000       0.00000       0.00000
     4  O(17)             -0.00000       0.00000       0.00000       0.00000
     5  H(1)              -0.00000      -0.00000      -0.00000      -0.00000
     6  O(17)             -0.00000       0.00000       0.00000       0.00000
     7  H(1)               0.00000       0.00000       0.00000       0.00000
     8  H(1)              -0.00000      -0.00000      -0.00000      -0.00000
     9  H(1)               0.00000       0.00000       0.00000       0.00000
 --------------------------------------------------------
       Center         ----  Spin Dipole Couplings  ----
                      3XX-RR        3YY-RR        3ZZ-RR
 --------------------------------------------------------
     1   Atom       -0.000000      0.000000     -0.000000
     2   Atom        0.000000     -0.000000      0.000000
     3   Atom        0.000000      0.000000     -0.000000
     4   Atom        0.000000     -0.000000     -0.000000
     5   Atom       -0.000000      0.000000     -0.000000
     6   Atom        0.000000     -0.000000      0.000000
     7   Atom        0.000000      0.000000     -0.000000
     8   Atom        0.000000     -0.000000      0.000000
     9   Atom        0.000000     -0.000000     -0.000000
 --------------------------------------------------------
                        XY            XZ            YZ
 --------------------------------------------------------
     1   Atom       -0.000000      0.000000      0.000000
     2   Atom        0.000000     -0.000000     -0.000000
     3   Atom       -0.000000      0.000000     -0.000000
     4   Atom       -0.000000     -0.000000      0.000000
     5   Atom        0.000000      0.000000      0.000000
     6   Atom        0.000000      0.000000      0.000000
     7   Atom       -0.000000     -0.000000      0.000000
     8   Atom        0.000000      0.000000     -0.000000
     9   Atom        0.000000      0.000000     -0.000000
 --------------------------------------------------------


 ---------------------------------------------------------------------------------
              Anisotropic Spin Dipole Couplings in Principal Axis System
 ---------------------------------------------------------------------------------

       Atom             a.u.   MegaHertz   Gauss  10(-4) cm-1        Axes

              Baa    -0.0000    -0.000    -0.000    -0.000 -0.1471 -0.0287  0.9887
     1 C(13)  Bbb    -0.0000    -0.000    -0.000    -0.000  0.9794  0.1353  0.1496
              Bcc     0.0000     0.000     0.000     0.000 -0.1381  0.9904  0.0082
 
              Baa    -0.0000    -0.000    -0.000    -0.000 -0.6260  0.7780  0.0541
     2 C(13)  Bbb     0.0000     0.000     0.000     0.000  0.1651  0.0645  0.9842
              Bcc     0.0000     0.000     0.000     0.000  0.7622  0.6250 -0.1688
 
              Baa    -0.0000    -0.000    -0.000    -0.000  0.2622  0.6145  0.7441
     3 C(13)  Bbb    -0.0000    -0.000    -0.000    -0.000 -0.5648 -0.5275  0.6346
              Bcc     0.0000     0.000     0.000     0.000  0.7825 -0.5866  0.2088
 
              Baa    -0.0000     0.000     0.000     0.000  0.6733  0.7393 -0.0098
     4 O(17)  Bbb    -0.0000     0.000     0.000     0.000  0.1795 -0.1506  0.9722
              Bcc     0.0000    -0.000    -0.000    -0.000  0.7173 -0.6563 -0.2341
 
              Baa    -0.0000    -0.000    -0.000    -0.000  0.9997 -0.0114 -0.0205
     5 H(1)   Bbb    -0.0000    -0.000    -0.000    -0.000  0.0203 -0.0174  0.9996
              Bcc     0.0000     0.000     0.000     0.000  0.0117  0.9998  0.0172
 
              Baa    -0.0000     0.000     0.000     0.000 -0.3815  0.9244 -0.0011
     6 O(17)  Bbb     0.0000    -0.000    -0.000    -0.000 -0.0650 -0.0256  0.9976
              Bcc     0.0000    -0.000    -0.000    -0.000  0.9221  0.3807  0.0699
 
              Baa    -0.0000    -0.000    -0.000    -0.000  0.6281  0.0043  0.7781
     7 H(1)   Bbb     0.0000     0.000     0.000     0.000  0.0784  0.9945 -0.0688
              Bcc     0.0000     0.000     0.000     0.000  0.7742 -0.1043 -0.6243
 
              Baa    -0.0000    -0.000    -0.000    -0.000 -0.1787  0.9284  0.3257
     8 H(1)   Bbb     0.0000     0.000     0.000     0.000  0.1437 -0.3028  0.9422
              Bcc     0.0000     0.000     0.000     0.000  0.9733  0.2152 -0.0793
 
              Baa    -0.0000    -0.000    -0.000    -0.000 -0.1602  0.2467  0.9558
     9 H(1)   Bbb    -0.0000    -0.000    -0.000    -0.000 -0.2953  0.9119 -0.2849
              Bcc     0.0000     0.000     0.000     0.000  0.9419  0.3279  0.0733
 

 ---------------------------------------------------------------------------------

 1\1\GINC-NODE32\SP\UB3LYP\6-31+G(d)\C3H4O2\YANZ\12-Oct-2023\0\\# ub3ly
 p/6-31+g(d)\\tmpdir/M2_conf_0_20.gjf\\0,1\C,0,0.,0.,0.\C,0,1.3857,0.,0
 .\C,0,2.26068,0.,1.23899\O,0,-0.60661,0.0144,-1.07164\H,0,-0.5465,-0.0
 1115,0.93968\O,0,2.00704,0.01456,-1.06918\H,0,2.9259,0.88344,1.19398\H
 ,0,1.68857,-0.06869,2.1667\H,0,3.00667,-0.80928,1.13143\\Version=ES64L
 -G16RevA.03\State=1-A\HF=-267.1324024\S2=0.\S2-1=0.\S2A=0.\RMSD=2.508e
 -09\Dipole=0.1942417,-0.0155288,1.7076037\Quadrupole=-0.8137304,1.9267
 524,-1.1130219,0.0493445,-0.5225955,0.0256488\PG=C01 [X(C3H4O2)]\\@


 A MAN THINKING OR WORKING IS ALWAYS ALONE, 
 LET HIM BE WHERE HE WILL.

                                    -- THOREAU
 Job cpu time:       0 days  0 hours  0 minutes 58.6 seconds.
 Elapsed time:       0 days  0 hours  0 minutes 29.9 seconds.
 File lengths (MBytes):  RWF=     10 Int=      0 D2E=      0 Chk=      2 Scr=      1
 Normal termination of Gaussian 16 at Thu Oct 12 15:14:04 2023.
