 Entering Gaussian System, Link 0=g16
 Initial command:
 /share/apps/gaussian/g16/l1.exe "/tmp/58286.mgr/Gau-31232.inp" -scrdir="/tmp/58286.mgr/"
 Entering Link 1 = /share/apps/gaussian/g16/l1.exe PID=     31233.
  
 Copyright (c) 1988,1990,1992,1993,1995,1998,2003,2009,2016,
            Gaussian, Inc.  All Rights Reserved.
  
 This is part of the Gaussian(R) 16 program.  It is based on
 the Gaussian(R) 09 system (copyright 2009, Gaussian, Inc.),
 the Gaussian(R) 03 system (copyright 2003, Gaussian, Inc.),
 the Gaussian(R) 98 system (copyright 1998, Gaussian, Inc.),
 the Gaussian(R) 94 system (copyright 1995, Gaussian, Inc.),
 the Gaussian 92(TM) system (copyright 1992, Gaussian, Inc.),
 the Gaussian 90(TM) system (copyright 1990, Gaussian, Inc.),
 the Gaussian 88(TM) system (copyright 1988, Gaussian, Inc.),
 the Gaussian 86(TM) system (copyright 1986, Carnegie Mellon
 University), and the Gaussian 82(TM) system (copyright 1983,
 Carnegie Mellon University). Gaussian is a federally registered
 trademark of Gaussian, Inc.
  
 This software contains proprietary and confidential information,
 including trade secrets, belonging to Gaussian, Inc.
  
 This software is provided under written license and may be
 used, copied, transmitted, or stored only in accord with that
 written license.
  
 The following legend is applicable only to US Government
 contracts under FAR:
  
                    RESTRICTED RIGHTS LEGEND
  
 Use, reproduction and disclosure by the US Government is
 subject to restrictions as set forth in subparagraphs (a)
 and (c) of the Commercial Computer Software - Restricted
 Rights clause in FAR 52.227-19.
  
 Gaussian, Inc.
 340 Quinnipiac St., Bldg. 40, Wallingford CT 06492
  
  
 ---------------------------------------------------------------
 Warning -- This program may not be used in any manner that
 competes with the business of Gaussian, Inc. or will provide
 assistance to any competitor of Gaussian, Inc.  The licensee
 of this program is prohibited from giving any competitor of
 Gaussian, Inc. access to this program.  By using this program,
 the user acknowledges that Gaussian, Inc. is engaged in the
 business of creating and licensing software in the field of
 computational chemistry and represents and warrants to the
 licensee that it is not a competitor of Gaussian, Inc. and that
 it will not use this program in any manner prohibited above.
 ---------------------------------------------------------------
  

 Cite this work as:
 Gaussian 16, Revision A.03,
 M. J. Frisch, G. W. Trucks, H. B. Schlegel, G. E. Scuseria, 
 M. A. Robb, J. R. Cheeseman, G. Scalmani, V. Barone, 
 G. A. Petersson, H. Nakatsuji, X. Li, M. Caricato, A. V. Marenich, 
 J. Bloino, B. G. Janesko, R. Gomperts, B. Mennucci, H. P. Hratchian, 
 J. V. Ortiz, A. F. Izmaylov, J. L. Sonnenberg, D. Williams-Young, 
 F. Ding, F. Lipparini, F. Egidi, J. Goings, B. Peng, A. Petrone, 
 T. Henderson, D. Ranasinghe, V. G. Zakrzewski, J. Gao, N. Rega, 
 G. Zheng, W. Liang, M. Hada, M. Ehara, K. Toyota, R. Fukuda, 
 J. Hasegawa, M. Ishida, T. Nakajima, Y. Honda, O. Kitao, H. Nakai, 
 T. Vreven, K. Throssell, J. A. Montgomery, Jr., J. E. Peralta, 
 F. Ogliaro, M. J. Bearpark, J. J. Heyd, E. N. Brothers, K. N. Kudin, 
 V. N. Staroverov, T. A. Keith, R. Kobayashi, J. Normand, 
 K. Raghavachari, A. P. Rendell, J. C. Burant, S. S. Iyengar, 
 J. Tomasi, M. Cossi, J. M. Millam, M. Klene, C. Adamo, R. Cammi, 
 J. W. Ochterski, R. L. Martin, K. Morokuma, O. Farkas, 
 J. B. Foresman, and D. J. Fox, Gaussian, Inc., Wallingford CT, 2016.
 
 ******************************************
 Gaussian 16:  ES64L-G16RevA.03 25-Dec-2016
                12-Oct-2023 
 ******************************************
 %nprocshared=2
 Will use up to    2 processors via shared memory.
 %mem=2GB
 ------------------
 # ub3lyp/6-31+g(d)
 ------------------
 1/38=1,172=1/1;
 2/12=2,17=6,18=5,40=1/2;
 3/5=1,6=6,7=11,11=2,25=1,30=1,74=-5,116=2/1,2,3;
 4//1;
 5/5=2,38=5/2;
 6/7=2,8=2,9=2,10=2,28=1/1;
 99/5=1,9=1/99;
 -----------------------
 tmpdir/M2_conf_0_57.gjf
 -----------------------
 Symbolic Z-matrix:
 Charge =  0 Multiplicity = 1
 C                     0.        0.        0. 
 C                     1.374     0.        0. 
 H                    -0.45861   0.       -1.00633 
 H                    -0.61191   0.0658    0.89393 
 H                     1.83099  -0.01449  -1.00036 
 H                     1.98311   0.03507   0.8966 
 
                          Input orientation:                          
 ---------------------------------------------------------------------
 Center     Atomic      Atomic             Coordinates (Angstroms)
 Number     Number       Type             X           Y           Z
 ---------------------------------------------------------------------
      1          6           0        0.000000    0.000000    0.000000
      2          6           0        1.374000    0.000000    0.000000
      3          1           0       -0.458610    0.000000   -1.006330
      4          1           0       -0.611910    0.065800    0.893930
      5          1           0        1.830990   -0.014490   -1.000360
      6          1           0        1.983110    0.035070    0.896600
 ---------------------------------------------------------------------
                    Distance matrix (angstroms):
                    1          2          3          4          5
     1  C    0.000000
     2  C    1.374000   0.000000
     3  H    1.105904   2.090732   0.000000
     4  H    1.085299   2.178825   1.907569   0.000000
     5  H    2.086493   1.099895   2.289654   3.092336   0.000000
     6  H    2.176660   1.084498   3.095863   2.595203   1.903695
                    6
     6  H    0.000000
 Stoichiometry    C2H4
 Framework group  C1[X(C2H4)]
 Deg. of freedom    12
 Full point group                 C1      NOp   1
 Largest Abelian subgroup         C1      NOp   1
 Largest concise Abelian subgroup C1      NOp   1
                         Standard orientation:                         
 ---------------------------------------------------------------------
 Center     Atomic      Atomic             Coordinates (Angstroms)
 Number     Number       Type             X           Y           Z
 ---------------------------------------------------------------------
      1          6           0       -0.686674   -0.014003   -0.009142
      2          6           0        0.687309   -0.012688   -0.002441
      3          1           0       -1.146386    0.991454    0.018137
      4          1           0       -1.297912   -0.910064    0.027427
      5          1           0        1.143263    0.988104    0.014644
      6          1           0        1.297228   -0.909347    0.009288
 ---------------------------------------------------------------------
 Rotational constants (GHZ):         138.5215179          29.1037067          24.0557753
 Standard basis: 6-31+G(d) (6D, 7F)
 There are    46 symmetry adapted cartesian basis functions of A   symmetry.
 There are    46 symmetry adapted basis functions of A   symmetry.
    46 basis functions,    80 primitive gaussians,    46 cartesian basis functions
     8 alpha electrons        8 beta electrons
       nuclear repulsion energy        32.7645547006 Hartrees.
 NAtoms=    6 NActive=    6 NUniq=    6 SFac= 1.00D+00 NAtFMM=   60 NAOKFM=F Big=F
 Integral buffers will be    131072 words long.
 Raffenetti 2 integral format.
 Two-electron integral symmetry is turned on.
 One-electron integrals computed using PRISM.
 NBasis=    46 RedAO= T EigKep=  2.58D-04  NBF=    46
 NBsUse=    46 1.00D-06 EigRej= -1.00D+00 NBFU=    46
 ExpMin= 4.38D-02 ExpMax= 3.05D+03 ExpMxC= 4.57D+02 IAcc=3 IRadAn=         5 AccDes= 0.00D+00
 Harris functional with IExCor=  402 and IRadAn=       5 diagonalized for initial guess.
 HarFok:  IExCor=  402 AccDes= 0.00D+00 IRadAn=         5 IDoV= 1 UseB2=F ITyADJ=14
 ICtDFT=  3500011 ScaDFX=  1.000000  1.000000  1.000000  1.000000
 FoFCou: FMM=F IPFlag=           0 FMFlag=      100000 FMFlg1=           0
         NFxFlg=           0 DoJE=T BraDBF=F KetDBF=T FulRan=T
         wScrn=  0.000000 ICntrl=       500 IOpCl=  0 I1Cent=   200000004 NGrid=           0
         NMat0=    1 NMatS0=      1 NMatT0=    0 NMatD0=    1 NMtDS0=    0 NMtDT0=    0
 Petite list used in FoFCou.
 Initial guess <Sx>= 0.0000 <Sy>= 0.0000 <Sz>= 0.0000 <S**2>= 0.0000 S= 0.0000
 Keep R1 and R2 ints in memory in canonical form, NReq=2904686.
 Requested convergence on RMS density matrix=1.00D-08 within 128 cycles.
 Requested convergence on MAX density matrix=1.00D-06.
 Requested convergence on             energy=1.00D-06.
 No special actions if energy rises.
 SCF Done:  E(UB3LYP) =  -78.5888055843     A.U. after    9 cycles
            NFock=  9  Conv=0.75D-08     -V/T= 2.0126
 <Sx>= 0.0000 <Sy>= 0.0000 <Sz>= 0.0000 <S**2>= 0.0000 S= 0.0000
 <L.S>= 0.000000000000E+00
 Annihilation of the first spin contaminant:
 S**2 before annihilation     0.0000,   after    -0.0000

 **********************************************************************

            Population analysis using the SCF density.

 **********************************************************************

 Orbital symmetries:
 Alpha Orbitals:
       Occupied  (A) (A) (A) (A) (A) (A) (A) (A)
       Virtual   (A) (A) (A) (A) (A) (A) (A) (A) (A) (A) (A) (A)
                 (A) (A) (A) (A) (A) (A) (A) (A) (A) (A) (A) (A)
                 (A) (A) (A) (A) (A) (A) (A) (A) (A) (A) (A) (A)
                 (A) (A)
 Beta  Orbitals:
       Occupied  (A) (A) (A) (A) (A) (A) (A) (A)
       Virtual   (A) (A) (A) (A) (A) (A) (A) (A) (A) (A) (A) (A)
                 (A) (A) (A) (A) (A) (A) (A) (A) (A) (A) (A) (A)
                 (A) (A) (A) (A) (A) (A) (A) (A) (A) (A) (A) (A)
                 (A) (A)
 The electronic state is 1-A.
 Alpha  occ. eigenvalues --  -10.20196 -10.20112  -0.75803  -0.58361  -0.47772
 Alpha  occ. eigenvalues --   -0.41163  -0.36936  -0.27185
 Alpha virt. eigenvalues --   -0.01468   0.02494   0.03322   0.04614   0.07000
 Alpha virt. eigenvalues --    0.08512   0.08685   0.12577   0.15556   0.16766
 Alpha virt. eigenvalues --    0.20041   0.23911   0.32288   0.35359   0.58732
 Alpha virt. eigenvalues --    0.65992   0.67718   0.71730   0.73917   0.82058
 Alpha virt. eigenvalues --    0.90947   0.93609   0.95443   0.99391   1.14368
 Alpha virt. eigenvalues --    1.24857   1.44237   1.54689   1.80554   1.90055
 Alpha virt. eigenvalues --    1.97207   2.09727   2.30454   2.34356   2.59152
 Alpha virt. eigenvalues --    2.68674   4.10110   4.25648
  Beta  occ. eigenvalues --  -10.20196 -10.20112  -0.75803  -0.58361  -0.47772
  Beta  occ. eigenvalues --   -0.41163  -0.36936  -0.27185
  Beta virt. eigenvalues --   -0.01468   0.02494   0.03322   0.04614   0.07000
  Beta virt. eigenvalues --    0.08512   0.08685   0.12577   0.15556   0.16766
  Beta virt. eigenvalues --    0.20041   0.23911   0.32288   0.35359   0.58732
  Beta virt. eigenvalues --    0.65992   0.67718   0.71730   0.73917   0.82058
  Beta virt. eigenvalues --    0.90947   0.93609   0.95443   0.99391   1.14368
  Beta virt. eigenvalues --    1.24857   1.44237   1.54689   1.80554   1.90055
  Beta virt. eigenvalues --    1.97207   2.09727   2.30454   2.34356   2.59152
  Beta virt. eigenvalues --    2.68674   4.10110   4.25648
          Condensed to atoms (all electrons):
               1          2          3          4          5          6
     1  C    5.028364   0.648603   0.387256   0.378309  -0.044406  -0.031208
     2  C    0.648603   5.028044  -0.044095  -0.031039   0.388196   0.378641
     3  H    0.387256  -0.044095   0.513446  -0.030147  -0.009221   0.003967
     4  H    0.378309  -0.031039  -0.030147   0.495362   0.003981  -0.004845
     5  H   -0.044406   0.388196  -0.009221   0.003981   0.511995  -0.030192
     6  H   -0.031208   0.378641   0.003967  -0.004845  -0.030192   0.495193
          Atomic-Atomic Spin Densities.
               1          2          3          4          5          6
     1  C    0.000000  -0.000000   0.000000   0.000000   0.000000   0.000000
     2  C   -0.000000  -0.000000  -0.000000  -0.000000  -0.000000  -0.000000
     3  H    0.000000  -0.000000  -0.000000  -0.000000   0.000000  -0.000000
     4  H    0.000000  -0.000000  -0.000000  -0.000000   0.000000   0.000000
     5  H    0.000000  -0.000000   0.000000   0.000000   0.000000   0.000000
     6  H    0.000000  -0.000000  -0.000000   0.000000   0.000000   0.000000
 Mulliken charges and spin densities:
               1          2
     1  C   -0.366917   0.000000
     2  C   -0.368349  -0.000000
     3  H    0.178794  -0.000000
     4  H    0.188380  -0.000000
     5  H    0.179647   0.000000
     6  H    0.188445   0.000000
 Sum of Mulliken charges =   0.00000  -0.00000
 Mulliken charges and spin densities with hydrogens summed into heavy atoms:
               1          2
     1  C    0.000257   0.000000
     2  C   -0.000257  -0.000000
 Electronic spatial extent (au):  <R**2>=             85.1449
 Charge=              0.0000 electrons
 Dipole moment (field-independent basis, Debye):
    X=              0.0037    Y=              0.0069    Z=              0.0762  Tot=              0.0766
 Quadrupole moment (field-independent basis, Debye-Ang):
   XX=            -12.6604   YY=            -12.2466   ZZ=            -16.2678
   XY=              0.0044   XZ=             -0.0315   YZ=              0.0014
 Traceless Quadrupole moment (field-independent basis, Debye-Ang):
   XX=              1.0645   YY=              1.4783   ZZ=             -2.5429
   XY=              0.0044   XZ=             -0.0315   YZ=              0.0014
 Octapole moment (field-independent basis, Debye-Ang**2):
  XXX=              0.0234  YYY=              0.2691  ZZZ=              0.1443  XYY=              0.0075
  XXY=             -0.7140  XXZ=              0.1811  XZZ=              0.0092  YZZ=             -0.0088
  YYZ=              0.1126  XYZ=              0.0239
 Hexadecapole moment (field-independent basis, Debye-Ang**3):
 XXXX=            -73.2405 YYYY=            -28.6939 ZZZZ=            -23.1834 XXXY=              0.0235
 XXXZ=             -0.0905 YYYX=              0.0107 YYYZ=              0.0080 ZZZX=             -0.0379
 ZZZY=              0.0015 XXYY=            -14.4180 XXZZ=            -17.0810 YYZZ=             -9.3540
 XXYZ=             -0.0185 YYXZ=             -0.0454 ZZXY=              0.0085
 N-N= 3.276455470055D+01 E-N=-2.466352428463D+02  KE= 7.760749295074D+01
                          Isotropic Fermi Contact Couplings
        Atom                 a.u.       MegaHertz       Gauss      10(-4) cm-1
     1  C(13)             -0.00000      -0.00000      -0.00000      -0.00000
     2  C(13)             -0.00000      -0.00000      -0.00000      -0.00000
     3  H(1)               0.00000       0.00000       0.00000       0.00000
     4  H(1)              -0.00000      -0.00000      -0.00000      -0.00000
     5  H(1)               0.00000       0.00000       0.00000       0.00000
     6  H(1)               0.00000       0.00000       0.00000       0.00000
 --------------------------------------------------------
       Center         ----  Spin Dipole Couplings  ----
                      3XX-RR        3YY-RR        3ZZ-RR
 --------------------------------------------------------
     1   Atom        0.000000      0.000000      0.000000
     2   Atom        0.000000      0.000000      0.000000
     3   Atom        0.000000      0.000000      0.000000
     4   Atom        0.000000      0.000000      0.000000
     5   Atom        0.000000      0.000000      0.000000
     6   Atom        0.000000      0.000000      0.000000
 --------------------------------------------------------
                        XY            XZ            YZ
 --------------------------------------------------------
     1   Atom        0.000000      0.000000      0.000000
     2   Atom        0.000000      0.000000      0.000000
     3   Atom        0.000000      0.000000      0.000000
     4   Atom        0.000000      0.000000      0.000000
     5   Atom        0.000000      0.000000      0.000000
     6   Atom        0.000000      0.000000      0.000000
 --------------------------------------------------------


 ---------------------------------------------------------------------------------
              Anisotropic Spin Dipole Couplings in Principal Axis System
 ---------------------------------------------------------------------------------

       Atom             a.u.   MegaHertz   Gauss  10(-4) cm-1        Axes

              Baa     0.0000     0.000     0.000     0.000  1.0000  0.0000  0.0000
     1 C(13)  Bbb     0.0000     0.000     0.000     0.000 -0.0000  1.0000  0.0000
              Bcc     0.0000     0.000     0.000     0.000  0.0000  0.0000  1.0000
 
              Baa     0.0000     0.000     0.000     0.000  1.0000  0.0000  0.0000
     2 C(13)  Bbb     0.0000     0.000     0.000     0.000 -0.0000  1.0000  0.0000
              Bcc     0.0000     0.000     0.000     0.000  0.0000  0.0000  1.0000
 
              Baa     0.0000     0.000     0.000     0.000  1.0000  0.0000  0.0000
     3 H(1)   Bbb     0.0000     0.000     0.000     0.000 -0.0000  1.0000  0.0000
              Bcc     0.0000     0.000     0.000     0.000  0.0000  0.0000  1.0000
 
              Baa     0.0000     0.000     0.000     0.000  1.0000  0.0000  0.0000
     4 H(1)   Bbb     0.0000     0.000     0.000     0.000 -0.0000  1.0000  0.0000
              Bcc     0.0000     0.000     0.000     0.000  0.0000  0.0000  1.0000
 
              Baa     0.0000     0.000     0.000     0.000  1.0000  0.0000  0.0000
     5 H(1)   Bbb     0.0000     0.000     0.000     0.000 -0.0000  1.0000  0.0000
              Bcc     0.0000     0.000     0.000     0.000  0.0000  0.0000  1.0000
 
              Baa     0.0000     0.000     0.000     0.000  1.0000  0.0000  0.0000
     6 H(1)   Bbb     0.0000     0.000     0.000     0.000 -0.0000  1.0000  0.0000
              Bcc     0.0000     0.000     0.000     0.000  0.0000  0.0000  1.0000
 

 ---------------------------------------------------------------------------------

 1\1\GINC-NODE32\SP\UB3LYP\6-31+G(d)\C2H4\YANZ\12-Oct-2023\0\\# ub3lyp/
 6-31+g(d)\\tmpdir/M2_conf_0_57.gjf\\0,1\C,0,0.,0.,0.\C,0,1.374,0.,0.\H
 ,0,-0.45861,0.,-1.00633\H,0,-0.61191,0.0658,0.89393\H,0,1.83099,-0.014
 49,-1.00036\H,0,1.98311,0.03507,0.8966\\Version=ES64L-G16RevA.03\State
 =1-A\HF=-78.5888056\S2=0.\S2-1=0.\S2A=0.\RMSD=7.502e-09\Dipole=0.00159
 57,0.0298762,-0.0035781\Quadrupole=0.7911727,-1.8877669,1.0965942,-0.0
 365634,-0.0024668,0.0865986\PG=C01 [X(C2H4)]\\@


 THERE IS NO CURE FOR BIRTH AND DEATH SAVE TO ENJOY THE INTERVAL.

                               -- GEORGE SANTAYANA
 Job cpu time:       0 days  0 hours  0 minutes 11.5 seconds.
 Elapsed time:       0 days  0 hours  0 minutes  5.8 seconds.
 File lengths (MBytes):  RWF=      6 Int=      0 D2E=      0 Chk=      1 Scr=      1
 Normal termination of Gaussian 16 at Thu Oct 12 15:14:12 2023.
