 Entering Gaussian System, Link 0=g16
 Initial command:
 /share/apps/gaussian/g16/l1.exe "/tmp/58286.mgr/Gau-31259.inp" -scrdir="/tmp/58286.mgr/"
 Entering Link 1 = /share/apps/gaussian/g16/l1.exe PID=     31260.
  
 Copyright (c) 1988,1990,1992,1993,1995,1998,2003,2009,2016,
            Gaussian, Inc.  All Rights Reserved.
  
 This is part of the Gaussian(R) 16 program.  It is based on
 the Gaussian(R) 09 system (copyright 2009, Gaussian, Inc.),
 the Gaussian(R) 03 system (copyright 2003, Gaussian, Inc.),
 the Gaussian(R) 98 system (copyright 1998, Gaussian, Inc.),
 the Gaussian(R) 94 system (copyright 1995, Gaussian, Inc.),
 the Gaussian 92(TM) system (copyright 1992, Gaussian, Inc.),
 the Gaussian 90(TM) system (copyright 1990, Gaussian, Inc.),
 the Gaussian 88(TM) system (copyright 1988, Gaussian, Inc.),
 the Gaussian 86(TM) system (copyright 1986, Carnegie Mellon
 University), and the Gaussian 82(TM) system (copyright 1983,
 Carnegie Mellon University). Gaussian is a federally registered
 trademark of Gaussian, Inc.
  
 This software contains proprietary and confidential information,
 including trade secrets, belonging to Gaussian, Inc.
  
 This software is provided under written license and may be
 used, copied, transmitted, or stored only in accord with that
 written license.
  
 The following legend is applicable only to US Government
 contracts under FAR:
  
                    RESTRICTED RIGHTS LEGEND
  
 Use, reproduction and disclosure by the US Government is
 subject to restrictions as set forth in subparagraphs (a)
 and (c) of the Commercial Computer Software - Restricted
 Rights clause in FAR 52.227-19.
  
 Gaussian, Inc.
 340 Quinnipiac St., Bldg. 40, Wallingford CT 06492
  
  
 ---------------------------------------------------------------
 Warning -- This program may not be used in any manner that
 competes with the business of Gaussian, Inc. or will provide
 assistance to any competitor of Gaussian, Inc.  The licensee
 of this program is prohibited from giving any competitor of
 Gaussian, Inc. access to this program.  By using this program,
 the user acknowledges that Gaussian, Inc. is engaged in the
 business of creating and licensing software in the field of
 computational chemistry and represents and warrants to the
 licensee that it is not a competitor of Gaussian, Inc. and that
 it will not use this program in any manner prohibited above.
 ---------------------------------------------------------------
  

 Cite this work as:
 Gaussian 16, Revision A.03,
 M. J. Frisch, G. W. Trucks, H. B. Schlegel, G. E. Scuseria, 
 M. A. Robb, J. R. Cheeseman, G. Scalmani, V. Barone, 
 G. A. Petersson, H. Nakatsuji, X. Li, M. Caricato, A. V. Marenich, 
 J. Bloino, B. G. Janesko, R. Gomperts, B. Mennucci, H. P. Hratchian, 
 J. V. Ortiz, A. F. Izmaylov, J. L. Sonnenberg, D. Williams-Young, 
 F. Ding, F. Lipparini, F. Egidi, J. Goings, B. Peng, A. Petrone, 
 T. Henderson, D. Ranasinghe, V. G. Zakrzewski, J. Gao, N. Rega, 
 G. Zheng, W. Liang, M. Hada, M. Ehara, K. Toyota, R. Fukuda, 
 J. Hasegawa, M. Ishida, T. Nakajima, Y. Honda, O. Kitao, H. Nakai, 
 T. Vreven, K. Throssell, J. A. Montgomery, Jr., J. E. Peralta, 
 F. Ogliaro, M. J. Bearpark, J. J. Heyd, E. N. Brothers, K. N. Kudin, 
 V. N. Staroverov, T. A. Keith, R. Kobayashi, J. Normand, 
 K. Raghavachari, A. P. Rendell, J. C. Burant, S. S. Iyengar, 
 J. Tomasi, M. Cossi, J. M. Millam, M. Klene, C. Adamo, R. Cammi, 
 J. W. Ochterski, R. L. Martin, K. Morokuma, O. Farkas, 
 J. B. Foresman, and D. J. Fox, Gaussian, Inc., Wallingford CT, 2016.
 
 ******************************************
 Gaussian 16:  ES64L-G16RevA.03 25-Dec-2016
                12-Oct-2023 
 ******************************************
 %nprocshared=2
 Will use up to    2 processors via shared memory.
 %mem=2GB
 ------------------
 # ub3lyp/6-31+g(d)
 ------------------
 1/38=1,172=1/1;
 2/12=2,17=6,18=5,40=1/2;
 3/5=1,6=6,7=11,11=2,25=1,30=1,74=-5,116=2/1,2,3;
 4//1;
 5/5=2,38=5/2;
 6/7=2,8=2,9=2,10=2,28=1/1;
 99/5=1,9=1/99;
 -----------------------
 tmpdir/M2_conf_0_34.gjf
 -----------------------
 Symbolic Z-matrix:
 Charge =  0 Multiplicity = 1
 C                     0.        0.        0. 
 C                     1.5248    0.        0. 
 H                     1.93699   0.        1.01154 
 H                    -0.59939  -0.05385   0.8044 
 O                    -0.48202   0.01372  -1.13881 
 H                     1.73578  -0.92898  -0.56327 
 H                     1.86396   0.84454  -0.61766 
 
                          Input orientation:                          
 ---------------------------------------------------------------------
 Center     Atomic      Atomic             Coordinates (Angstroms)
 Number     Number       Type             X           Y           Z
 ---------------------------------------------------------------------
      1          6           0        0.000000    0.000000    0.000000
      2          6           0        1.524800    0.000000    0.000000
      3          1           0        1.936990    0.000000    1.011540
      4          1           0       -0.599390   -0.053850    0.804400
      5          8           0       -0.482020    0.013720   -1.138810
      6          1           0        1.735780   -0.928980   -0.563270
      7          1           0        1.863960    0.844540   -0.617660
 ---------------------------------------------------------------------
                    Distance matrix (angstroms):
                    1          2          3          4          5
     1  C    0.000000
     2  C    1.524800   0.000000
     3  H    2.185210   1.092297   0.000000
     4  H    1.004603   2.272035   2.545394   0.000000
     5  O    1.236697   2.307467   3.236634   1.947924   0.000000
     6  H    2.047733   1.106702   1.839434   2.844186   2.477613
     7  H    2.137545   1.099901   1.836539   2.982860   2.542731
                    6          7
     6  H    0.000000
     7  H    1.778978   0.000000
 Stoichiometry    C2H4O
 Framework group  C1[X(C2H4O)]
 Deg. of freedom    15
 Full point group                 C1      NOp   1
 Largest Abelian subgroup         C1      NOp   1
 Largest concise Abelian subgroup C1      NOp   1
                         Standard orientation:                         
 ---------------------------------------------------------------------
 Center     Atomic      Atomic             Coordinates (Angstroms)
 Number     Number       Type             X           Y           Z
 ---------------------------------------------------------------------
      1          6           0       -0.236624    0.500190   -0.014839
      2          6           0        1.144722   -0.145370   -0.002502
      3          1           0        1.946441    0.596041   -0.028388
      4          1           0       -0.438758    1.483911    0.010899
      5          8           0       -1.155560   -0.327302    0.000446
      6          1           0        1.101907   -0.717224    0.944039
      7          1           0        1.186300   -0.873230   -0.826074
 ---------------------------------------------------------------------
 Rotational constants (GHZ):          48.7236764          11.0532287           9.5505012
 Standard basis: 6-31+G(d) (6D, 7F)
 There are    65 symmetry adapted cartesian basis functions of A   symmetry.
 There are    65 symmetry adapted basis functions of A   symmetry.
    65 basis functions,   112 primitive gaussians,    65 cartesian basis functions
    12 alpha electrons       12 beta electrons
       nuclear repulsion energy        70.0493765394 Hartrees.
 NAtoms=    7 NActive=    7 NUniq=    7 SFac= 1.00D+00 NAtFMM=   60 NAOKFM=F Big=F
 Integral buffers will be    131072 words long.
 Raffenetti 2 integral format.
 Two-electron integral symmetry is turned on.
 One-electron integrals computed using PRISM.
 NBasis=    65 RedAO= T EigKep=  3.41D-04  NBF=    65
 NBsUse=    65 1.00D-06 EigRej= -1.00D+00 NBFU=    65
 ExpMin= 4.38D-02 ExpMax= 5.48D+03 ExpMxC= 8.25D+02 IAcc=3 IRadAn=         5 AccDes= 0.00D+00
 Harris functional with IExCor=  402 and IRadAn=       5 diagonalized for initial guess.
 HarFok:  IExCor=  402 AccDes= 0.00D+00 IRadAn=         5 IDoV= 1 UseB2=F ITyADJ=14
 ICtDFT=  3500011 ScaDFX=  1.000000  1.000000  1.000000  1.000000
 FoFCou: FMM=F IPFlag=           0 FMFlag=      100000 FMFlg1=           0
         NFxFlg=           0 DoJE=T BraDBF=F KetDBF=T FulRan=T
         wScrn=  0.000000 ICntrl=       500 IOpCl=  0 I1Cent=   200000004 NGrid=           0
         NMat0=    1 NMatS0=      1 NMatT0=    0 NMatD0=    1 NMtDS0=    0 NMtDT0=    0
 Petite list used in FoFCou.
 Initial guess <Sx>= 0.0000 <Sy>= 0.0000 <Sz>= 0.0000 <S**2>=-0.0000 S=-0.0000
 Keep R1 and R2 ints in memory in canonical form, NReq=6379691.
 Requested convergence on RMS density matrix=1.00D-08 within 128 cycles.
 Requested convergence on MAX density matrix=1.00D-06.
 Requested convergence on             energy=1.00D-06.
 No special actions if energy rises.
 SCF Done:  E(UB3LYP) =  -153.822718560     A.U. after   11 cycles
            NFock= 11  Conv=0.22D-08     -V/T= 2.0090
 <Sx>= 0.0000 <Sy>= 0.0000 <Sz>= 0.0000 <S**2>=-0.0000 S=-0.0000
 <L.S>= 0.000000000000E+00
 Annihilation of the first spin contaminant:
 S**2 before annihilation    -0.0000,   after    -0.0000

 **********************************************************************

            Population analysis using the SCF density.

 **********************************************************************

 Orbital symmetries:
 Alpha Orbitals:
       Occupied  (A) (A) (A) (A) (A) (A) (A) (A) (A) (A) (A) (A)
       Virtual   (A) (A) (A) (A) (A) (A) (A) (A) (A) (A) (A) (A)
                 (A) (A) (A) (A) (A) (A) (A) (A) (A) (A) (A) (A)
                 (A) (A) (A) (A) (A) (A) (A) (A) (A) (A) (A) (A)
                 (A) (A) (A) (A) (A) (A) (A) (A) (A) (A) (A) (A)
                 (A) (A) (A) (A) (A)
 Beta  Orbitals:
       Occupied  (A) (A) (A) (A) (A) (A) (A) (A) (A) (A) (A) (A)
       Virtual   (A) (A) (A) (A) (A) (A) (A) (A) (A) (A) (A) (A)
                 (A) (A) (A) (A) (A) (A) (A) (A) (A) (A) (A) (A)
                 (A) (A) (A) (A) (A) (A) (A) (A) (A) (A) (A) (A)
                 (A) (A) (A) (A) (A) (A) (A) (A) (A) (A) (A) (A)
                 (A) (A) (A) (A) (A)
 The electronic state is 1-A.
 Alpha  occ. eigenvalues --  -19.15967 -10.28533 -10.20477  -1.04654  -0.75220
 Alpha  occ. eigenvalues --   -0.61802  -0.48627  -0.45114  -0.43225  -0.41365
 Alpha  occ. eigenvalues --   -0.36004  -0.26503
 Alpha virt. eigenvalues --   -0.05139   0.01060   0.02624   0.04780   0.04937
 Alpha virt. eigenvalues --    0.07233   0.07769   0.09372   0.14110   0.16947
 Alpha virt. eigenvalues --    0.17227   0.20226   0.23444   0.25215   0.26039
 Alpha virt. eigenvalues --    0.28387   0.29737   0.32931   0.37729   0.63352
 Alpha virt. eigenvalues --    0.64282   0.66825   0.67841   0.71794   0.76051
 Alpha virt. eigenvalues --    0.90561   0.95153   1.00953   1.05361   1.07432
 Alpha virt. eigenvalues --    1.16501   1.20152   1.23750   1.31286   1.38189
 Alpha virt. eigenvalues --    1.50238   1.55465   1.71378   1.79862   1.80979
 Alpha virt. eigenvalues --    1.90980   2.07727   2.16207   2.20000   2.23908
 Alpha virt. eigenvalues --    2.30274   2.54311   2.60183   2.82204   2.98054
 Alpha virt. eigenvalues --    4.09753   4.16715   4.38830
  Beta  occ. eigenvalues --  -19.15967 -10.28533 -10.20477  -1.04654  -0.75220
  Beta  occ. eigenvalues --   -0.61802  -0.48627  -0.45114  -0.43225  -0.41365
  Beta  occ. eigenvalues --   -0.36004  -0.26503
  Beta virt. eigenvalues --   -0.05139   0.01060   0.02624   0.04780   0.04937
  Beta virt. eigenvalues --    0.07233   0.07769   0.09372   0.14110   0.16947
  Beta virt. eigenvalues --    0.17227   0.20226   0.23444   0.25215   0.26039
  Beta virt. eigenvalues --    0.28387   0.29737   0.32931   0.37729   0.63352
  Beta virt. eigenvalues --    0.64282   0.66825   0.67841   0.71794   0.76051
  Beta virt. eigenvalues --    0.90561   0.95153   1.00953   1.05361   1.07432
  Beta virt. eigenvalues --    1.16501   1.20152   1.23750   1.31286   1.38189
  Beta virt. eigenvalues --    1.50238   1.55465   1.71378   1.79862   1.80979
  Beta virt. eigenvalues --    1.90980   2.07727   2.16207   2.20000   2.23908
  Beta virt. eigenvalues --    2.30274   2.54311   2.60183   2.82204   2.98054
  Beta virt. eigenvalues --    4.09753   4.16715   4.38830
          Condensed to atoms (all electrons):
               1          2          3          4          5          6
     1  C    4.880221   0.167352  -0.040269   0.383835   0.451862  -0.036685
     2  C    0.167352   5.652862   0.359466  -0.104936  -0.149580   0.387442
     3  H   -0.040269   0.359466   0.515886   0.004625   0.009907  -0.023448
     4  H    0.383835  -0.104936   0.004625   0.598726  -0.064681   0.002580
     5  O    0.451862  -0.149580   0.009907  -0.064681   8.153489  -0.013996
     6  H   -0.036685   0.387442  -0.023448   0.002580  -0.013996   0.467691
     7  H   -0.035396   0.390829  -0.022978   0.002157  -0.008900  -0.020568
               7
     1  C   -0.035396
     2  C    0.390829
     3  H   -0.022978
     4  H    0.002157
     5  O   -0.008900
     6  H   -0.020568
     7  H    0.453887
          Atomic-Atomic Spin Densities.
               1          2          3          4          5          6
     1  C    0.000000  -0.000000  -0.000000   0.000000   0.000000   0.000000
     2  C   -0.000000   0.000000   0.000000  -0.000000  -0.000000   0.000000
     3  H   -0.000000   0.000000   0.000000   0.000000  -0.000000  -0.000000
     4  H    0.000000  -0.000000   0.000000  -0.000000  -0.000000  -0.000000
     5  O    0.000000  -0.000000  -0.000000  -0.000000  -0.000000  -0.000000
     6  H    0.000000   0.000000  -0.000000  -0.000000  -0.000000   0.000000
     7  H    0.000000  -0.000000  -0.000000  -0.000000  -0.000000   0.000000
               7
     1  C    0.000000
     2  C   -0.000000
     3  H   -0.000000
     4  H   -0.000000
     5  O   -0.000000
     6  H    0.000000
     7  H   -0.000000
 Mulliken charges and spin densities:
               1          2
     1  C    0.229081   0.000000
     2  C   -0.703435  -0.000000
     3  H    0.196811   0.000000
     4  H    0.177693  -0.000000
     5  O   -0.378102  -0.000000
     6  H    0.236984   0.000000
     7  H    0.240969  -0.000000
 Sum of Mulliken charges =  -0.00000   0.00000
 Mulliken charges and spin densities with hydrogens summed into heavy atoms:
               1          2
     1  C    0.406774   0.000000
     2  C   -0.028672  -0.000000
     5  O   -0.378102  -0.000000
 Electronic spatial extent (au):  <R**2>=            161.9477
 Charge=             -0.0000 electrons
 Dipole moment (field-independent basis, Debye):
    X=              2.3590    Y=              1.5614    Z=              0.0171  Tot=              2.8290
 Quadrupole moment (field-independent basis, Debye-Ang):
   XX=            -21.9003   YY=            -17.6175   ZZ=            -17.9836
   XY=             -1.4846   XZ=             -0.0756   YZ=              0.0445
 Traceless Quadrupole moment (field-independent basis, Debye-Ang):
   XX=             -2.7332   YY=              1.5496   ZZ=              1.1835
   XY=             -1.4846   XZ=             -0.0756   YZ=              0.0445
 Octapole moment (field-independent basis, Debye-Ang**2):
  XXX=              0.9491  YYY=              1.6735  ZZZ=              0.1906  XYY=             -0.8496
  XXY=              1.5108  XXZ=             -0.2828  XZZ=             -0.9871  YZZ=             -0.9427
  YYZ=             -0.1584  XYZ=              0.1238
 Hexadecapole moment (field-independent basis, Debye-Ang**3):
 XXXX=           -148.5534 YYYY=            -45.5154 ZZZZ=            -24.4742 XXXY=              2.2412
 XXXZ=             -0.5896 YYYX=             -0.8184 YYYZ=              0.3269 ZZZX=              0.0193
 ZZZY=             -0.0706 XXYY=            -30.1267 XXZZ=            -27.7868 YYZZ=            -11.2191
 XXYZ=              0.1973 YYXZ=             -0.3321 ZZXY=             -0.7291
 N-N= 7.004937653940D+01 E-N=-4.990996636363D+02  KE= 1.524449212479D+02
                          Isotropic Fermi Contact Couplings
        Atom                 a.u.       MegaHertz       Gauss      10(-4) cm-1
     1  C(13)             -0.00000      -0.00000      -0.00000      -0.00000
     2  C(13)              0.00000       0.00000       0.00000       0.00000
     3  H(1)               0.00000       0.00000       0.00000       0.00000
     4  H(1)               0.00000       0.00000       0.00000       0.00000
     5  O(17)              0.00000      -0.00000      -0.00000      -0.00000
     6  H(1)               0.00000       0.00000       0.00000       0.00000
     7  H(1)              -0.00000      -0.00000      -0.00000      -0.00000
 --------------------------------------------------------
       Center         ----  Spin Dipole Couplings  ----
                      3XX-RR        3YY-RR        3ZZ-RR
 --------------------------------------------------------
     1   Atom        0.000000      0.000000      0.000000
     2   Atom        0.000000      0.000000      0.000000
     3   Atom        0.000000      0.000000      0.000000
     4   Atom        0.000000      0.000000      0.000000
     5   Atom        0.000000      0.000000      0.000000
     6   Atom        0.000000      0.000000      0.000000
     7   Atom        0.000000      0.000000      0.000000
 --------------------------------------------------------
                        XY            XZ            YZ
 --------------------------------------------------------
     1   Atom        0.000000      0.000000      0.000000
     2   Atom        0.000000      0.000000      0.000000
     3   Atom        0.000000      0.000000      0.000000
     4   Atom        0.000000      0.000000      0.000000
     5   Atom        0.000000      0.000000      0.000000
     6   Atom        0.000000      0.000000      0.000000
     7   Atom        0.000000      0.000000      0.000000
 --------------------------------------------------------


 ---------------------------------------------------------------------------------
              Anisotropic Spin Dipole Couplings in Principal Axis System
 ---------------------------------------------------------------------------------

       Atom             a.u.   MegaHertz   Gauss  10(-4) cm-1        Axes

              Baa     0.0000     0.000     0.000     0.000  1.0000  0.0000  0.0000
     1 C(13)  Bbb     0.0000     0.000     0.000     0.000 -0.0000  1.0000  0.0000
              Bcc     0.0000     0.000     0.000     0.000  0.0000  0.0000  1.0000
 
              Baa     0.0000     0.000     0.000     0.000  1.0000  0.0000  0.0000
     2 C(13)  Bbb     0.0000     0.000     0.000     0.000 -0.0000  1.0000  0.0000
              Bcc     0.0000     0.000     0.000     0.000  0.0000  0.0000  1.0000
 
              Baa     0.0000     0.000     0.000     0.000  1.0000  0.0000  0.0000
     3 H(1)   Bbb     0.0000     0.000     0.000     0.000 -0.0000  1.0000  0.0000
              Bcc     0.0000     0.000     0.000     0.000  0.0000  0.0000  1.0000
 
              Baa     0.0000     0.000     0.000     0.000  1.0000  0.0000  0.0000
     4 H(1)   Bbb     0.0000     0.000     0.000     0.000 -0.0000  1.0000  0.0000
              Bcc     0.0000     0.000     0.000     0.000  0.0000  0.0000  1.0000
 
              Baa     0.0000    -0.000    -0.000    -0.000  1.0000  0.0000  0.0000
     5 O(17)  Bbb     0.0000    -0.000    -0.000    -0.000 -0.0000  1.0000  0.0000
              Bcc     0.0000    -0.000    -0.000    -0.000  0.0000  0.0000  1.0000
 
              Baa     0.0000     0.000     0.000     0.000  1.0000  0.0000  0.0000
     6 H(1)   Bbb     0.0000     0.000     0.000     0.000 -0.0000  1.0000  0.0000
              Bcc     0.0000     0.000     0.000     0.000  0.0000  0.0000  1.0000
 
              Baa     0.0000     0.000     0.000     0.000  1.0000  0.0000  0.0000
     7 H(1)   Bbb     0.0000     0.000     0.000     0.000 -0.0000  1.0000  0.0000
              Bcc     0.0000     0.000     0.000     0.000  0.0000  0.0000  1.0000
 

 ---------------------------------------------------------------------------------

 1\1\GINC-NODE32\SP\UB3LYP\6-31+G(d)\C2H4O1\YANZ\12-Oct-2023\0\\# ub3ly
 p/6-31+g(d)\\tmpdir/M2_conf_0_34.gjf\\0,1\C,0,0.,0.,0.\C,0,1.5248,0.,0
 .\H,0,1.93699,0.,1.01154\H,0,-0.59939,-0.05385,0.8044\O,0,-0.48202,0.0
 1372,-1.13881\H,0,1.73578,-0.92898,-0.56327\H,0,1.86396,0.84454,-0.617
 66\\Version=ES64L-G16RevA.03\State=1-A\HF=-153.8227186\S2=0.\S2-1=0.\S
 2A=0.\RMSD=2.203e-09\Dipole=0.5807638,-0.0294544,0.9490301\Quadrupole=
 -0.6154641,0.8811802,-0.2657161,0.1085227,-1.9269651,0.011378\PG=C01 [
 X(C2H4O1)]\\@


 THE WORLD IS MADE UP OF THE WILLS, THE WON'TS, AND THE CANT'S:
 THE WILLS DO EVERYTHING,
 THE WON'TS DO NOTHING,
 THE CAN'TS CAN'T DO ANYTHING.

                               -- FROM WALT DISNEY'S "BLACK HOLE"
 Job cpu time:       0 days  0 hours  0 minutes 21.9 seconds.
 Elapsed time:       0 days  0 hours  0 minutes 11.1 seconds.
 File lengths (MBytes):  RWF=      6 Int=      0 D2E=      0 Chk=      1 Scr=      1
 Normal termination of Gaussian 16 at Thu Oct 12 15:14:20 2023.
