 Entering Gaussian System, Link 0=g16
 Initial command:
 /share/apps/gaussian/g16/l1.exe "/tmp/58286.mgr/Gau-31410.inp" -scrdir="/tmp/58286.mgr/"
 Entering Link 1 = /share/apps/gaussian/g16/l1.exe PID=     31411.
  
 Copyright (c) 1988,1990,1992,1993,1995,1998,2003,2009,2016,
            Gaussian, Inc.  All Rights Reserved.
  
 This is part of the Gaussian(R) 16 program.  It is based on
 the Gaussian(R) 09 system (copyright 2009, Gaussian, Inc.),
 the Gaussian(R) 03 system (copyright 2003, Gaussian, Inc.),
 the Gaussian(R) 98 system (copyright 1998, Gaussian, Inc.),
 the Gaussian(R) 94 system (copyright 1995, Gaussian, Inc.),
 the Gaussian 92(TM) system (copyright 1992, Gaussian, Inc.),
 the Gaussian 90(TM) system (copyright 1990, Gaussian, Inc.),
 the Gaussian 88(TM) system (copyright 1988, Gaussian, Inc.),
 the Gaussian 86(TM) system (copyright 1986, Carnegie Mellon
 University), and the Gaussian 82(TM) system (copyright 1983,
 Carnegie Mellon University). Gaussian is a federally registered
 trademark of Gaussian, Inc.
  
 This software contains proprietary and confidential information,
 including trade secrets, belonging to Gaussian, Inc.
  
 This software is provided under written license and may be
 used, copied, transmitted, or stored only in accord with that
 written license.
  
 The following legend is applicable only to US Government
 contracts under FAR:
  
                    RESTRICTED RIGHTS LEGEND
  
 Use, reproduction and disclosure by the US Government is
 subject to restrictions as set forth in subparagraphs (a)
 and (c) of the Commercial Computer Software - Restricted
 Rights clause in FAR 52.227-19.
  
 Gaussian, Inc.
 340 Quinnipiac St., Bldg. 40, Wallingford CT 06492
  
  
 ---------------------------------------------------------------
 Warning -- This program may not be used in any manner that
 competes with the business of Gaussian, Inc. or will provide
 assistance to any competitor of Gaussian, Inc.  The licensee
 of this program is prohibited from giving any competitor of
 Gaussian, Inc. access to this program.  By using this program,
 the user acknowledges that Gaussian, Inc. is engaged in the
 business of creating and licensing software in the field of
 computational chemistry and represents and warrants to the
 licensee that it is not a competitor of Gaussian, Inc. and that
 it will not use this program in any manner prohibited above.
 ---------------------------------------------------------------
  

 Cite this work as:
 Gaussian 16, Revision A.03,
 M. J. Frisch, G. W. Trucks, H. B. Schlegel, G. E. Scuseria, 
 M. A. Robb, J. R. Cheeseman, G. Scalmani, V. Barone, 
 G. A. Petersson, H. Nakatsuji, X. Li, M. Caricato, A. V. Marenich, 
 J. Bloino, B. G. Janesko, R. Gomperts, B. Mennucci, H. P. Hratchian, 
 J. V. Ortiz, A. F. Izmaylov, J. L. Sonnenberg, D. Williams-Young, 
 F. Ding, F. Lipparini, F. Egidi, J. Goings, B. Peng, A. Petrone, 
 T. Henderson, D. Ranasinghe, V. G. Zakrzewski, J. Gao, N. Rega, 
 G. Zheng, W. Liang, M. Hada, M. Ehara, K. Toyota, R. Fukuda, 
 J. Hasegawa, M. Ishida, T. Nakajima, Y. Honda, O. Kitao, H. Nakai, 
 T. Vreven, K. Throssell, J. A. Montgomery, Jr., J. E. Peralta, 
 F. Ogliaro, M. J. Bearpark, J. J. Heyd, E. N. Brothers, K. N. Kudin, 
 V. N. Staroverov, T. A. Keith, R. Kobayashi, J. Normand, 
 K. Raghavachari, A. P. Rendell, J. C. Burant, S. S. Iyengar, 
 J. Tomasi, M. Cossi, J. M. Millam, M. Klene, C. Adamo, R. Cammi, 
 J. W. Ochterski, R. L. Martin, K. Morokuma, O. Farkas, 
 J. B. Foresman, and D. J. Fox, Gaussian, Inc., Wallingford CT, 2016.
 
 ******************************************
 Gaussian 16:  ES64L-G16RevA.03 25-Dec-2016
                12-Oct-2023 
 ******************************************
 %nprocshared=2
 Will use up to    2 processors via shared memory.
 %mem=2GB
 ------------------
 # ub3lyp/6-31+g(d)
 ------------------
 1/38=1,172=1/1;
 2/12=2,17=6,18=5,40=1/2;
 3/5=1,6=6,7=11,11=2,25=1,30=1,74=-5,116=2/1,2,3;
 4//1;
 5/5=2,38=5/2;
 6/7=2,8=2,9=2,10=2,28=1/1;
 99/5=1,9=1/99;
 -----------------------
 tmpdir/M2_conf_0_63.gjf
 -----------------------
 Symbolic Z-matrix:
 Charge =  0 Multiplicity = 1
 C                     0.        0.        0. 
 C                     1.5195    0.        0. 
 C                     2.01547   0.        1.24128 
 H                    -0.34036  -0.83292   0.63935 
 H                    -0.33205   0.87202   0.59507 
 H                    -0.44044  -0.03924  -0.99879 
 H                     2.08227   0.022    -0.92679 
 H                     1.25125   0.01458   2.0405 
 H                     3.07344   0.05269   1.4775 
 
                          Input orientation:                          
 ---------------------------------------------------------------------
 Center     Atomic      Atomic             Coordinates (Angstroms)
 Number     Number       Type             X           Y           Z
 ---------------------------------------------------------------------
      1          6           0        0.000000    0.000000    0.000000
      2          6           0        1.519500    0.000000    0.000000
      3          6           0        2.015470    0.000000    1.241280
      4          1           0       -0.340360   -0.832920    0.639350
      5          1           0       -0.332050    0.872020    0.595070
      6          1           0       -0.440440   -0.039240   -0.998790
      7          1           0        2.082270    0.022000   -0.926790
      8          1           0        1.251250    0.014580    2.040500
      9          1           0        3.073440    0.052690    1.477500
 ---------------------------------------------------------------------
                    Distance matrix (angstroms):
                    1          2          3          4          5
     1  C    0.000000
     2  C    1.519500   0.000000
     3  C    2.367044   1.336698   0.000000
     4  H    1.103798   2.135791   2.570216   0.000000
     5  H    1.106700   2.131376   2.586282   1.705535   0.000000
     6  H    1.092295   2.200110   3.324297   1.823032   1.839166
     7  H    2.279314   1.084497   2.169210   3.008790   2.977840
     8  H    2.393633   2.058109   1.105892   2.283572   2.308963
     9  H    3.410545   2.144880   1.085300   3.625028   3.612111
                    6          7          8          9
     6  H    0.000000
     7  H    2.524480   0.000000
     8  H    3.478792   3.081470   0.000000
     9  H    4.299746   2.600763   1.907563   0.000000
 Stoichiometry    C3H6
 Framework group  C1[X(C3H6)]
 Deg. of freedom    21
 Full point group                 C1      NOp   1
 Largest Abelian subgroup         C1      NOp   1
 Largest concise Abelian subgroup C1      NOp   1
                         Standard orientation:                         
 ---------------------------------------------------------------------
 Center     Atomic      Atomic             Coordinates (Angstroms)
 Number     Number       Type             X           Y           Z
 ---------------------------------------------------------------------
      1          6           0       -1.172917   -0.164589    0.002893
      2          6           0        0.153761    0.576184   -0.004767
      3          6           0        1.191924   -0.265807   -0.010281
      4          1           0       -1.163052   -0.889026   -0.829851
      5          1           0       -1.167861   -0.845739    0.875128
      6          1           0       -2.044601    0.492738   -0.031701
      7          1           0        0.193424    1.659744    0.016647
      8          1           0        0.914388   -1.336180    0.006210
      9          1           0        2.231093    0.043736    0.036501
 ---------------------------------------------------------------------
 Rotational constants (GHZ):          39.0346982          10.4991571           8.6920945
 Standard basis: 6-31+G(d) (6D, 7F)
 There are    69 symmetry adapted cartesian basis functions of A   symmetry.
 There are    69 symmetry adapted basis functions of A   symmetry.
    69 basis functions,   120 primitive gaussians,    69 cartesian basis functions
    12 alpha electrons       12 beta electrons
       nuclear repulsion energy        71.3210006417 Hartrees.
 NAtoms=    9 NActive=    9 NUniq=    9 SFac= 1.00D+00 NAtFMM=   60 NAOKFM=F Big=F
 Integral buffers will be    131072 words long.
 Raffenetti 2 integral format.
 Two-electron integral symmetry is turned on.
 One-electron integrals computed using PRISM.
 NBasis=    69 RedAO= T EigKep=  1.80D-04  NBF=    69
 NBsUse=    69 1.00D-06 EigRej= -1.00D+00 NBFU=    69
 ExpMin= 4.38D-02 ExpMax= 3.05D+03 ExpMxC= 4.57D+02 IAcc=3 IRadAn=         5 AccDes= 0.00D+00
 Harris functional with IExCor=  402 and IRadAn=       5 diagonalized for initial guess.
 HarFok:  IExCor=  402 AccDes= 0.00D+00 IRadAn=         5 IDoV= 1 UseB2=F ITyADJ=14
 ICtDFT=  3500011 ScaDFX=  1.000000  1.000000  1.000000  1.000000
 FoFCou: FMM=F IPFlag=           0 FMFlag=      100000 FMFlg1=           0
         NFxFlg=           0 DoJE=T BraDBF=F KetDBF=T FulRan=T
         wScrn=  0.000000 ICntrl=       500 IOpCl=  0 I1Cent=   200000004 NGrid=           0
         NMat0=    1 NMatS0=      1 NMatT0=    0 NMatD0=    1 NMtDS0=    0 NMtDT0=    0
 Petite list used in FoFCou.
 Initial guess <Sx>= 0.0000 <Sy>= 0.0000 <Sz>= 0.0000 <S**2>= 0.0000 S= 0.0000
 Keep R1 and R2 ints in memory in canonical form, NReq=7619695.
 Requested convergence on RMS density matrix=1.00D-08 within 128 cycles.
 Requested convergence on MAX density matrix=1.00D-06.
 Requested convergence on             energy=1.00D-06.
 No special actions if energy rises.
 SCF Done:  E(UB3LYP) =  -117.898699072     A.U. after   11 cycles
            NFock= 11  Conv=0.15D-08     -V/T= 2.0106
 <Sx>= 0.0000 <Sy>= 0.0000 <Sz>= 0.0000 <S**2>=-0.0000 S=-0.0000
 <L.S>= 0.000000000000E+00
 Annihilation of the first spin contaminant:
 S**2 before annihilation    -0.0000,   after     0.0000

 **********************************************************************

            Population analysis using the SCF density.

 **********************************************************************

 Orbital symmetries:
 Alpha Orbitals:
       Occupied  (A) (A) (A) (A) (A) (A) (A) (A) (A) (A) (A) (A)
       Virtual   (A) (A) (A) (A) (A) (A) (A) (A) (A) (A) (A) (A)
                 (A) (A) (A) (A) (A) (A) (A) (A) (A) (A) (A) (A)
                 (A) (A) (A) (A) (A) (A) (A) (A) (A) (A) (A) (A)
                 (A) (A) (A) (A) (A) (A) (A) (A) (A) (A) (A) (A)
                 (A) (A) (A) (A) (A) (A) (A) (A) (A)
 Beta  Orbitals:
       Occupied  (A) (A) (A) (A) (A) (A) (A) (A) (A) (A) (A) (A)
       Virtual   (A) (A) (A) (A) (A) (A) (A) (A) (A) (A) (A) (A)
                 (A) (A) (A) (A) (A) (A) (A) (A) (A) (A) (A) (A)
                 (A) (A) (A) (A) (A) (A) (A) (A) (A) (A) (A) (A)
                 (A) (A) (A) (A) (A) (A) (A) (A) (A) (A) (A) (A)
                 (A) (A) (A) (A) (A) (A) (A) (A) (A)
 The electronic state is 1-A.
 Alpha  occ. eigenvalues --  -10.19711 -10.18543 -10.18227  -0.79452  -0.67468
 Alpha  occ. eigenvalues --   -0.56182  -0.47552  -0.41450  -0.40615  -0.38319
 Alpha  occ. eigenvalues --   -0.35034  -0.25290
 Alpha virt. eigenvalues --   -0.00868   0.01689   0.03109   0.03252   0.06119
 Alpha virt. eigenvalues --    0.06590   0.07722   0.09434   0.09525   0.11523
 Alpha virt. eigenvalues --    0.12697   0.12918   0.16651   0.19962   0.20702
 Alpha virt. eigenvalues --    0.22116   0.25753   0.27041   0.31068   0.33923
 Alpha virt. eigenvalues --    0.37580   0.60072   0.64844   0.66540   0.69461
 Alpha virt. eigenvalues --    0.70171   0.73425   0.78086   0.79740   0.88847
 Alpha virt. eigenvalues --    0.91274   0.93547   0.96508   1.01957   1.04398
 Alpha virt. eigenvalues --    1.09921   1.17407   1.23854   1.34646   1.42056
 Alpha virt. eigenvalues --    1.46378   1.70462   1.79182   1.89184   2.00653
 Alpha virt. eigenvalues --    2.12604   2.16051   2.23340   2.23947   2.24867
 Alpha virt. eigenvalues --    2.43083   2.56292   2.75941   2.81928   4.19832
 Alpha virt. eigenvalues --    4.21800   4.42203
  Beta  occ. eigenvalues --  -10.19711 -10.18543 -10.18227  -0.79452  -0.67468
  Beta  occ. eigenvalues --   -0.56182  -0.47552  -0.41450  -0.40615  -0.38319
  Beta  occ. eigenvalues --   -0.35034  -0.25290
  Beta virt. eigenvalues --   -0.00868   0.01689   0.03109   0.03252   0.06119
  Beta virt. eigenvalues --    0.06590   0.07722   0.09434   0.09525   0.11523
  Beta virt. eigenvalues --    0.12697   0.12918   0.16651   0.19962   0.20702
  Beta virt. eigenvalues --    0.22116   0.25753   0.27041   0.31068   0.33923
  Beta virt. eigenvalues --    0.37580   0.60072   0.64844   0.66540   0.69461
  Beta virt. eigenvalues --    0.70171   0.73425   0.78086   0.79740   0.88847
  Beta virt. eigenvalues --    0.91274   0.93547   0.96508   1.01957   1.04398
  Beta virt. eigenvalues --    1.09921   1.17407   1.23854   1.34646   1.42056
  Beta virt. eigenvalues --    1.46378   1.70462   1.79182   1.89184   2.00653
  Beta virt. eigenvalues --    2.12604   2.16051   2.23340   2.23947   2.24867
  Beta virt. eigenvalues --    2.43083   2.56292   2.75941   2.81928   4.19832
  Beta virt. eigenvalues --    4.21800   4.42203
          Condensed to atoms (all electrons):
               1          2          3          4          5          6
     1  C    5.544808   0.161696  -0.022459   0.406781   0.407108   0.393053
     2  C    0.161696   5.024247   0.606107  -0.061559  -0.059077  -0.059124
     3  C   -0.022459   0.606107   5.135445  -0.015427  -0.019487   0.015338
     4  H    0.406781  -0.061559  -0.015427   0.511349  -0.041357  -0.021310
     5  H    0.407108  -0.059077  -0.019487  -0.041357   0.512090  -0.020420
     6  H    0.393053  -0.059124   0.015338  -0.021310  -0.020420   0.497428
     7  H   -0.039482   0.338611   0.001474   0.002427   0.002350  -0.002409
     8  H   -0.001061  -0.096059   0.418384   0.001045   0.000930   0.000672
     9  H    0.006914  -0.032385   0.374174   0.000126   0.000036  -0.000188
               7          8          9
     1  C   -0.039482  -0.001061   0.006914
     2  C    0.338611  -0.096059  -0.032385
     3  C    0.001474   0.418384   0.374174
     4  H    0.002427   0.001045   0.000126
     5  H    0.002350   0.000930   0.000036
     6  H   -0.002409   0.000672  -0.000188
     7  H    0.511466   0.004308  -0.003947
     8  H    0.004308   0.529434  -0.030539
     9  H   -0.003947  -0.030539   0.503241
          Atomic-Atomic Spin Densities.
               1          2          3          4          5          6
     1  C   -0.000000  -0.000000   0.000000   0.000000   0.000000  -0.000000
     2  C   -0.000000  -0.000000  -0.000000  -0.000000  -0.000000   0.000000
     3  C    0.000000  -0.000000   0.000000   0.000000   0.000000   0.000000
     4  H    0.000000  -0.000000   0.000000  -0.000000  -0.000000   0.000000
     5  H    0.000000  -0.000000   0.000000  -0.000000  -0.000000   0.000000
     6  H   -0.000000   0.000000   0.000000   0.000000   0.000000   0.000000
     7  H    0.000000   0.000000  -0.000000   0.000000  -0.000000   0.000000
     8  H   -0.000000   0.000000  -0.000000   0.000000  -0.000000   0.000000
     9  H    0.000000  -0.000000   0.000000  -0.000000  -0.000000  -0.000000
               7          8          9
     1  C    0.000000  -0.000000   0.000000
     2  C    0.000000   0.000000  -0.000000
     3  C   -0.000000  -0.000000   0.000000
     4  H    0.000000   0.000000  -0.000000
     5  H   -0.000000  -0.000000  -0.000000
     6  H    0.000000   0.000000  -0.000000
     7  H    0.000000   0.000000   0.000000
     8  H    0.000000   0.000000   0.000000
     9  H    0.000000   0.000000  -0.000000
 Mulliken charges and spin densities:
               1          2
     1  C   -0.857359  -0.000000
     2  C    0.177541  -0.000000
     3  C   -0.493547   0.000000
     4  H    0.217925  -0.000000
     5  H    0.217824  -0.000000
     6  H    0.196959   0.000000
     7  H    0.185202   0.000000
     8  H    0.172886   0.000000
     9  H    0.182568  -0.000000
 Sum of Mulliken charges =  -0.00000   0.00000
 Mulliken charges and spin densities with hydrogens summed into heavy atoms:
               1          2
     1  C   -0.224650  -0.000000
     2  C    0.362744  -0.000000
     3  C   -0.138093   0.000000
 Electronic spatial extent (au):  <R**2>=            188.5632
 Charge=             -0.0000 electrons
 Dipole moment (field-independent basis, Debye):
    X=             -0.3298    Y=              0.0095    Z=              0.0741  Tot=              0.3381
 Quadrupole moment (field-independent basis, Debye-Ang):
   XX=            -20.2047   YY=            -18.8234   ZZ=            -22.4895
   XY=             -0.1603   XZ=              0.1614   YZ=             -0.0022
 Traceless Quadrupole moment (field-independent basis, Debye-Ang):
   XX=              0.3012   YY=              1.6825   ZZ=             -1.9837
   XY=             -0.1603   XZ=              0.1614   YZ=             -0.0022
 Octapole moment (field-independent basis, Debye-Ang**2):
  XXX=              2.1198  YYY=              1.1633  ZZZ=              0.2062  XYY=             -0.4887
  XXY=              1.4547  XXZ=              0.1655  XZZ=             -1.9961  YZZ=             -0.9159
  YYZ=              0.0890  XYZ=              0.0272
 Hexadecapole moment (field-independent basis, Debye-Ang**3):
 XXXX=           -167.6119 YYYY=            -60.3716 ZZZZ=            -35.6429 XXXY=             -1.3102
 XXXZ=              0.9815 YYYX=             -0.1906 YYYZ=              0.1024 ZZZX=              0.2061
 ZZZY=             -0.0310 XXYY=            -40.0925 XXZZ=            -38.1080 YYZZ=            -16.8423
 XXYZ=             -0.0703 YYXZ=              0.1440 ZZXY=              0.4487
 N-N= 7.132100064169D+01 E-N=-4.146042153050D+02  KE= 1.166620179432D+02
                          Isotropic Fermi Contact Couplings
        Atom                 a.u.       MegaHertz       Gauss      10(-4) cm-1
     1  C(13)              0.00000       0.00000       0.00000       0.00000
     2  C(13)              0.00000       0.00000       0.00000       0.00000
     3  C(13)              0.00000       0.00000       0.00000       0.00000
     4  H(1)              -0.00000      -0.00000      -0.00000      -0.00000
     5  H(1)              -0.00000      -0.00000      -0.00000      -0.00000
     6  H(1)               0.00000       0.00000       0.00000       0.00000
     7  H(1)               0.00000       0.00000       0.00000       0.00000
     8  H(1)              -0.00000      -0.00000      -0.00000      -0.00000
     9  H(1)               0.00000       0.00000       0.00000       0.00000
 --------------------------------------------------------
       Center         ----  Spin Dipole Couplings  ----
                      3XX-RR        3YY-RR        3ZZ-RR
 --------------------------------------------------------
     1   Atom        0.000000      0.000000      0.000000
     2   Atom        0.000000      0.000000      0.000000
     3   Atom        0.000000      0.000000      0.000000
     4   Atom        0.000000      0.000000      0.000000
     5   Atom        0.000000      0.000000      0.000000
     6   Atom        0.000000      0.000000      0.000000
     7   Atom        0.000000      0.000000      0.000000
     8   Atom        0.000000      0.000000      0.000000
     9   Atom        0.000000      0.000000      0.000000
 --------------------------------------------------------
                        XY            XZ            YZ
 --------------------------------------------------------
     1   Atom        0.000000      0.000000      0.000000
     2   Atom        0.000000      0.000000      0.000000
     3   Atom        0.000000      0.000000      0.000000
     4   Atom        0.000000      0.000000      0.000000
     5   Atom        0.000000      0.000000      0.000000
     6   Atom        0.000000      0.000000      0.000000
     7   Atom        0.000000      0.000000      0.000000
     8   Atom        0.000000      0.000000      0.000000
     9   Atom        0.000000      0.000000      0.000000
 --------------------------------------------------------


 ---------------------------------------------------------------------------------
              Anisotropic Spin Dipole Couplings in Principal Axis System
 ---------------------------------------------------------------------------------

       Atom             a.u.   MegaHertz   Gauss  10(-4) cm-1        Axes

              Baa     0.0000     0.000     0.000     0.000  1.0000  0.0000  0.0000
     1 C(13)  Bbb     0.0000     0.000     0.000     0.000 -0.0000  1.0000  0.0000
              Bcc     0.0000     0.000     0.000     0.000  0.0000  0.0000  1.0000
 
              Baa     0.0000     0.000     0.000     0.000  1.0000  0.0000  0.0000
     2 C(13)  Bbb     0.0000     0.000     0.000     0.000 -0.0000  1.0000  0.0000
              Bcc     0.0000     0.000     0.000     0.000  0.0000  0.0000  1.0000
 
              Baa     0.0000     0.000     0.000     0.000  1.0000  0.0000  0.0000
     3 C(13)  Bbb     0.0000     0.000     0.000     0.000 -0.0000  1.0000  0.0000
              Bcc     0.0000     0.000     0.000     0.000  0.0000  0.0000  1.0000
 
              Baa     0.0000     0.000     0.000     0.000  1.0000  0.0000  0.0000
     4 H(1)   Bbb     0.0000     0.000     0.000     0.000 -0.0000  1.0000  0.0000
              Bcc     0.0000     0.000     0.000     0.000  0.0000  0.0000  1.0000
 
              Baa     0.0000     0.000     0.000     0.000  1.0000  0.0000  0.0000
     5 H(1)   Bbb     0.0000     0.000     0.000     0.000 -0.0000  1.0000  0.0000
              Bcc     0.0000     0.000     0.000     0.000  0.0000  0.0000  1.0000
 
              Baa     0.0000     0.000     0.000     0.000  1.0000  0.0000  0.0000
     6 H(1)   Bbb     0.0000     0.000     0.000     0.000 -0.0000  1.0000  0.0000
              Bcc     0.0000     0.000     0.000     0.000  0.0000  0.0000  1.0000
 
              Baa     0.0000     0.000     0.000     0.000  1.0000  0.0000  0.0000
     7 H(1)   Bbb     0.0000     0.000     0.000     0.000 -0.0000  1.0000  0.0000
              Bcc     0.0000     0.000     0.000     0.000  0.0000  0.0000  1.0000
 
              Baa     0.0000     0.000     0.000     0.000  1.0000  0.0000  0.0000
     8 H(1)   Bbb     0.0000     0.000     0.000     0.000 -0.0000  1.0000  0.0000
              Bcc     0.0000     0.000     0.000     0.000  0.0000  0.0000  1.0000
 
              Baa     0.0000     0.000     0.000     0.000  1.0000  0.0000  0.0000
     9 H(1)   Bbb     0.0000     0.000     0.000     0.000 -0.0000  1.0000  0.0000
              Bcc     0.0000     0.000     0.000     0.000  0.0000  0.0000  1.0000
 

 ---------------------------------------------------------------------------------

 1\1\GINC-NODE32\SP\UB3LYP\6-31+G(d)\C3H6\YANZ\12-Oct-2023\0\\# ub3lyp/
 6-31+g(d)\\tmpdir/M2_conf_0_63.gjf\\0,1\C,0,0.,0.,0.\C,0,1.5195,0.,0.\
 C,0,2.01547,0.,1.24128\H,0,-0.34036,-0.83292,0.63935\H,0,-0.33205,0.87
 202,0.59507\H,0,-0.44044,-0.03924,-0.99879\H,0,2.08227,0.022,-0.92679\
 H,0,1.25125,0.01458,2.0405\H,0,3.07344,0.05269,1.4775\\Version=ES64L-G
 16RevA.03\State=1-A\HF=-117.8986991\S2=0.\S2-1=0.\S2A=0.\RMSD=1.549e-0
 9\Dipole=-0.1116165,0.0284166,-0.066581\Quadrupole=0.3654339,-1.473410
 4,1.1079766,0.1123292,-0.3751592,0.0643301\PG=C01 [X(C3H6)]\\@


 Not by the face shall a man be known, but by the mask.
                               -- Karen Blixen
 Job cpu time:       0 days  0 hours  0 minutes 29.1 seconds.
 Elapsed time:       0 days  0 hours  0 minutes 14.7 seconds.
 File lengths (MBytes):  RWF=      6 Int=      0 D2E=      0 Chk=      1 Scr=      1
 Normal termination of Gaussian 16 at Thu Oct 12 15:14:41 2023.
