 Entering Gaussian System, Link 0=g16
 Initial command:
 /share/apps/gaussian/g16/l1.exe "/tmp/58286.mgr/Gau-31062.inp" -scrdir="/tmp/58286.mgr/"
 Entering Link 1 = /share/apps/gaussian/g16/l1.exe PID=     31063.
  
 Copyright (c) 1988,1990,1992,1993,1995,1998,2003,2009,2016,
            Gaussian, Inc.  All Rights Reserved.
  
 This is part of the Gaussian(R) 16 program.  It is based on
 the Gaussian(R) 09 system (copyright 2009, Gaussian, Inc.),
 the Gaussian(R) 03 system (copyright 2003, Gaussian, Inc.),
 the Gaussian(R) 98 system (copyright 1998, Gaussian, Inc.),
 the Gaussian(R) 94 system (copyright 1995, Gaussian, Inc.),
 the Gaussian 92(TM) system (copyright 1992, Gaussian, Inc.),
 the Gaussian 90(TM) system (copyright 1990, Gaussian, Inc.),
 the Gaussian 88(TM) system (copyright 1988, Gaussian, Inc.),
 the Gaussian 86(TM) system (copyright 1986, Carnegie Mellon
 University), and the Gaussian 82(TM) system (copyright 1983,
 Carnegie Mellon University). Gaussian is a federally registered
 trademark of Gaussian, Inc.
  
 This software contains proprietary and confidential information,
 including trade secrets, belonging to Gaussian, Inc.
  
 This software is provided under written license and may be
 used, copied, transmitted, or stored only in accord with that
 written license.
  
 The following legend is applicable only to US Government
 contracts under FAR:
  
                    RESTRICTED RIGHTS LEGEND
  
 Use, reproduction and disclosure by the US Government is
 subject to restrictions as set forth in subparagraphs (a)
 and (c) of the Commercial Computer Software - Restricted
 Rights clause in FAR 52.227-19.
  
 Gaussian, Inc.
 340 Quinnipiac St., Bldg. 40, Wallingford CT 06492
  
  
 ---------------------------------------------------------------
 Warning -- This program may not be used in any manner that
 competes with the business of Gaussian, Inc. or will provide
 assistance to any competitor of Gaussian, Inc.  The licensee
 of this program is prohibited from giving any competitor of
 Gaussian, Inc. access to this program.  By using this program,
 the user acknowledges that Gaussian, Inc. is engaged in the
 business of creating and licensing software in the field of
 computational chemistry and represents and warrants to the
 licensee that it is not a competitor of Gaussian, Inc. and that
 it will not use this program in any manner prohibited above.
 ---------------------------------------------------------------
  

 Cite this work as:
 Gaussian 16, Revision A.03,
 M. J. Frisch, G. W. Trucks, H. B. Schlegel, G. E. Scuseria, 
 M. A. Robb, J. R. Cheeseman, G. Scalmani, V. Barone, 
 G. A. Petersson, H. Nakatsuji, X. Li, M. Caricato, A. V. Marenich, 
 J. Bloino, B. G. Janesko, R. Gomperts, B. Mennucci, H. P. Hratchian, 
 J. V. Ortiz, A. F. Izmaylov, J. L. Sonnenberg, D. Williams-Young, 
 F. Ding, F. Lipparini, F. Egidi, J. Goings, B. Peng, A. Petrone, 
 T. Henderson, D. Ranasinghe, V. G. Zakrzewski, J. Gao, N. Rega, 
 G. Zheng, W. Liang, M. Hada, M. Ehara, K. Toyota, R. Fukuda, 
 J. Hasegawa, M. Ishida, T. Nakajima, Y. Honda, O. Kitao, H. Nakai, 
 T. Vreven, K. Throssell, J. A. Montgomery, Jr., J. E. Peralta, 
 F. Ogliaro, M. J. Bearpark, J. J. Heyd, E. N. Brothers, K. N. Kudin, 
 V. N. Staroverov, T. A. Keith, R. Kobayashi, J. Normand, 
 K. Raghavachari, A. P. Rendell, J. C. Burant, S. S. Iyengar, 
 J. Tomasi, M. Cossi, J. M. Millam, M. Klene, C. Adamo, R. Cammi, 
 J. W. Ochterski, R. L. Martin, K. Morokuma, O. Farkas, 
 J. B. Foresman, and D. J. Fox, Gaussian, Inc., Wallingford CT, 2016.
 
 ******************************************
 Gaussian 16:  ES64L-G16RevA.03 25-Dec-2016
                12-Oct-2023 
 ******************************************
 %nprocshared=2
 Will use up to    2 processors via shared memory.
 %mem=2GB
 ------------------
 # ub3lyp/6-31+g(d)
 ------------------
 1/38=1,172=1/1;
 2/12=2,17=6,18=5,40=1/2;
 3/5=1,6=6,7=11,11=2,25=1,30=1,74=-5,116=2/1,2,3;
 4//1;
 5/5=2,38=5/2;
 6/7=2,8=2,9=2,10=2,28=1/1;
 99/5=1,9=1/99;
 -----------------------
 tmpdir/M2_conf_0_39.gjf
 -----------------------
 Symbolic Z-matrix:
 Charge =  0 Multiplicity = 2
 C                     0.        0.        0. 
 C                     1.5109    0.        0. 
 H                    -0.34422   0.       -1.04265 
 H                    -0.43635   0.8055    0.59452 
 H                    -0.19318  -1.00278   0.42442 
 H                     1.88768  -0.70911  -0.71908 
 H                     1.98033   0.06477   0.98293 
 
                          Input orientation:                          
 ---------------------------------------------------------------------
 Center     Atomic      Atomic             Coordinates (Angstroms)
 Number     Number       Type             X           Y           Z
 ---------------------------------------------------------------------
      1          6           0        0.000000    0.000000    0.000000
      2          6           0        1.510900    0.000000    0.000000
      3          1           0       -0.344220    0.000000   -1.042650
      4          1           0       -0.436350    0.805500    0.594520
      5          1           0       -0.193180   -1.002780    0.424420
      6          1           0        1.887680   -0.709110   -0.719080
      7          1           0        1.980330    0.064770    0.982930
 ---------------------------------------------------------------------
                    Distance matrix (angstroms):
                    1          2          3          4          5
     1  C    0.000000
     2  C    1.510900   0.000000
     3  H    1.098001   2.128048   0.000000
     4  H    1.092101   2.189536   1.826922   0.000000
     5  H    1.105902   2.022273   1.783445   1.832469   0.000000
     6  H    2.140852   1.077904   2.364088   3.069317   2.392449
     7  H    2.211799   1.091197   3.083943   2.557320   2.485104
                    6          7
     6  H    0.000000
     7  H    1.871981   0.000000
 Stoichiometry    C2H5(2)
 Framework group  C1[X(C2H5)]
 Deg. of freedom    15
 Full point group                 C1      NOp   1
 Largest Abelian subgroup         C1      NOp   1
 Largest concise Abelian subgroup C1      NOp   1
                         Standard orientation:                         
 ---------------------------------------------------------------------
 Center     Atomic      Atomic             Coordinates (Angstroms)
 Number     Number       Type             X           Y           Z
 ---------------------------------------------------------------------
      1          6           0        0.705262   -0.012770    0.004360
      2          6           0       -0.801024   -0.005438   -0.113407
      3          1           0        1.089079    0.919493   -0.430584
      4          1           0        1.171607   -0.905519   -0.417785
      5          1           0        0.813449    0.051933    1.103053
      6          1           0       -1.196603    0.955742    0.172122
      7          1           0       -1.302958   -0.912396    0.227477
 ---------------------------------------------------------------------
 Rotational constants (GHZ):          96.4955494          23.1104012          21.4909318
 Standard basis: 6-31+G(d) (6D, 7F)
 There are    48 symmetry adapted cartesian basis functions of A   symmetry.
 There are    48 symmetry adapted basis functions of A   symmetry.
    48 basis functions,    84 primitive gaussians,    48 cartesian basis functions
     9 alpha electrons        8 beta electrons
       nuclear repulsion energy        36.9314008967 Hartrees.
 NAtoms=    7 NActive=    7 NUniq=    7 SFac= 1.00D+00 NAtFMM=   60 NAOKFM=F Big=F
 Integral buffers will be    131072 words long.
 Raffenetti 2 integral format.
 Two-electron integral symmetry is turned on.
 One-electron integrals computed using PRISM.
 NBasis=    48 RedAO= T EigKep=  3.82D-04  NBF=    48
 NBsUse=    48 1.00D-06 EigRej= -1.00D+00 NBFU=    48
 ExpMin= 4.38D-02 ExpMax= 3.05D+03 ExpMxC= 4.57D+02 IAcc=3 IRadAn=         5 AccDes= 0.00D+00
 Harris functional with IExCor=  402 and IRadAn=       5 diagonalized for initial guess.
 HarFok:  IExCor=  402 AccDes= 0.00D+00 IRadAn=         5 IDoV= 1 UseB2=F ITyADJ=14
 ICtDFT=  3500011 ScaDFX=  1.000000  1.000000  1.000000  1.000000
 FoFCou: FMM=F IPFlag=           0 FMFlag=      100000 FMFlg1=           0
         NFxFlg=           0 DoJE=T BraDBF=F KetDBF=T FulRan=T
         wScrn=  0.000000 ICntrl=       500 IOpCl=  0 I1Cent=   200000004 NGrid=           0
         NMat0=    1 NMatS0=      1 NMatT0=    0 NMatD0=    1 NMtDS0=    0 NMtDT0=    0
 Petite list used in FoFCou.
 Initial guess <Sx>= 0.0000 <Sy>= 0.0000 <Sz>= 0.5000 <S**2>= 0.7500 S= 0.5000
 Keep R1 and R2 ints in memory in canonical form, NReq=3127369.
 Requested convergence on RMS density matrix=1.00D-08 within 128 cycles.
 Requested convergence on MAX density matrix=1.00D-06.
 Requested convergence on             energy=1.00D-06.
 No special actions if energy rises.
 SCF Done:  E(UB3LYP) =  -79.1540620167     A.U. after   12 cycles
            NFock= 12  Conv=0.45D-08     -V/T= 2.0104
 <Sx>= 0.0000 <Sy>= 0.0000 <Sz>= 0.5000 <S**2>= 0.7531 S= 0.5015
 <L.S>= 0.000000000000E+00
 Annihilation of the first spin contaminant:
 S**2 before annihilation     0.7531,   after     0.7500

 **********************************************************************

            Population analysis using the SCF density.

 **********************************************************************

 Orbital symmetries:
 Alpha Orbitals:
       Occupied  (A) (A) (A) (A) (A) (A) (A) (A) (A)
       Virtual   (A) (A) (A) (A) (A) (A) (A) (A) (A) (A) (A) (A)
                 (A) (A) (A) (A) (A) (A) (A) (A) (A) (A) (A) (A)
                 (A) (A) (A) (A) (A) (A) (A) (A) (A) (A) (A) (A)
                 (A) (A) (A)
 Beta  Orbitals:
       Occupied  (A) (A) (A) (A) (A) (A) (A) (A)
       Virtual   (A) (A) (A) (A) (A) (A) (A) (A) (A) (A) (A) (A)
                 (A) (A) (A) (A) (A) (A) (A) (A) (A) (A) (A) (A)
                 (A) (A) (A) (A) (A) (A) (A) (A) (A) (A) (A) (A)
                 (A) (A) (A) (A)
 The electronic state is 2-A.
 Alpha  occ. eigenvalues --  -10.19805 -10.18778  -0.76382  -0.60554  -0.46152
 Alpha  occ. eigenvalues --   -0.42513  -0.37359  -0.36701  -0.21361
 Alpha virt. eigenvalues --    0.01845   0.03352   0.04969   0.05755   0.08125
 Alpha virt. eigenvalues --    0.08887   0.09760   0.14844   0.17185   0.19621
 Alpha virt. eigenvalues --    0.23001   0.23295   0.25418   0.30451   0.61495
 Alpha virt. eigenvalues --    0.64527   0.66243   0.67552   0.69271   0.70296
 Alpha virt. eigenvalues --    0.90727   0.93401   0.94063   0.99668   1.03601
 Alpha virt. eigenvalues --    1.08748   1.28513   1.46634   1.55707   1.90291
 Alpha virt. eigenvalues --    1.92834   2.02000   2.19791   2.24288   2.28943
 Alpha virt. eigenvalues --    2.35074   2.62338   4.10662   4.32244
  Beta  occ. eigenvalues --  -10.18813 -10.18419  -0.74785  -0.58352  -0.45533
  Beta  occ. eigenvalues --   -0.40999  -0.36472  -0.36222
  Beta virt. eigenvalues --   -0.05873   0.02019   0.03529   0.04986   0.06187
  Beta virt. eigenvalues --    0.08106   0.08880   0.11109   0.15164   0.17825
  Beta virt. eigenvalues --    0.19741   0.24085   0.24438   0.26314   0.31112
  Beta virt. eigenvalues --    0.62107   0.64775   0.67012   0.70046   0.71136
  Beta virt. eigenvalues --    0.73565   0.92132   0.94029   0.94520   1.01462
  Beta virt. eigenvalues --    1.04324   1.09230   1.29806   1.49173   1.58553
  Beta virt. eigenvalues --    1.93986   1.96186   2.04214   2.23354   2.26006
  Beta virt. eigenvalues --    2.30189   2.35836   2.63794   4.13125   4.33361
          Condensed to atoms (all electrons):
               1          2          3          4          5          6
     1  C    5.437334   0.165875   0.409236   0.396901   0.386478  -0.050877
     2  C    0.165875   5.535190  -0.067796  -0.050958  -0.069972   0.382499
     3  H    0.409236  -0.067796   0.510501  -0.023426  -0.032201  -0.005959
     4  H    0.396901  -0.050958  -0.023426   0.497134  -0.025998   0.004397
     5  H    0.386478  -0.069972  -0.032201  -0.025998   0.539815  -0.002341
     6  H   -0.050877   0.382499  -0.005959   0.004397  -0.002341   0.526167
     7  H   -0.043790   0.378770   0.004355  -0.003987  -0.002281  -0.031615
               7
     1  C   -0.043790
     2  C    0.378770
     3  H    0.004355
     4  H   -0.003987
     5  H   -0.002281
     6  H   -0.031615
     7  H    0.519237
          Atomic-Atomic Spin Densities.
               1          2          3          4          5          6
     1  C   -0.000764  -0.122151  -0.000407  -0.001256   0.050545  -0.007168
     2  C   -0.122151   1.297981  -0.001735  -0.000987  -0.065258  -0.003729
     3  H   -0.000407  -0.001735   0.015216   0.003148  -0.008618   0.001380
     4  H   -0.001256  -0.000987   0.003148   0.014945  -0.008315   0.000105
     5  H    0.050545  -0.065258  -0.008618  -0.008315   0.088965  -0.001818
     6  H   -0.007168  -0.003729   0.001380   0.000105  -0.001818  -0.033755
     7  H   -0.008682  -0.002411   0.000157   0.001085  -0.001805   0.002408
               7
     1  C   -0.008682
     2  C   -0.002411
     3  H    0.000157
     4  H    0.001085
     5  H   -0.001805
     6  H    0.002408
     7  H   -0.031561
 Mulliken charges and spin densities:
               1          2
     1  C   -0.701158  -0.089883
     2  C   -0.273609   1.101709
     3  H    0.205290   0.009141
     4  H    0.205938   0.008725
     5  H    0.206500   0.053696
     6  H    0.177729  -0.042578
     7  H    0.179312  -0.040810
 Sum of Mulliken charges =  -0.00000   1.00000
 Mulliken charges and spin densities with hydrogens summed into heavy atoms:
               1          2
     1  C   -0.083431  -0.018321
     2  C    0.083431   1.018321
 Electronic spatial extent (au):  <R**2>=             98.6810
 Charge=             -0.0000 electrons
 Dipole moment (field-independent basis, Debye):
    X=              0.3824    Y=              0.0394    Z=              0.6257  Tot=              0.7343
 Quadrupole moment (field-independent basis, Debye-Ang):
   XX=            -15.5496   YY=            -13.6318   ZZ=            -15.4824
   XY=             -0.0048   XZ=             -0.9561   YZ=              0.0225
 Traceless Quadrupole moment (field-independent basis, Debye-Ang):
   XX=             -0.6616   YY=              1.2561   ZZ=             -0.5945
   XY=             -0.0048   XZ=             -0.9561   YZ=              0.0225
 Octapole moment (field-independent basis, Debye-Ang**2):
  XXX=              1.0555  YYY=              0.1286  ZZZ=              1.9876  XYY=              0.0278
  XXY=             -0.3183  XXZ=              0.7116  XZZ=              1.6788  YZZ=              0.0632
  YYZ=              0.0206  XYZ=              0.1620
 Hexadecapole moment (field-independent basis, Debye-Ang**3):
 XXXX=            -90.7058 YYYY=            -30.0130 ZZZZ=            -27.7675 XXXY=              0.0179
 XXXZ=             -3.0854 YYYX=             -0.1356 YYYZ=             -0.0296 ZZZX=             -1.3678
 ZZZY=              0.0863 XXYY=            -18.0023 XXZZ=            -20.7355 YYZZ=             -9.9746
 XXYZ=              0.0137 YYXZ=             -1.5890 ZZXY=              0.0148
 N-N= 3.693140089673D+01 E-N=-2.562448152635D+02  KE= 7.833618139115D+01
                          Isotropic Fermi Contact Couplings
        Atom                 a.u.       MegaHertz       Gauss      10(-4) cm-1
     1  C(13)             -0.01735     -19.50741      -6.96073      -6.50697
     2  C(13)              0.19097     214.68574      76.60521      71.61146
     3  H(1)               0.00542      24.20473       8.63685       8.07383
     4  H(1)               0.00502      22.42742       8.00266       7.48098
     5  H(1)               0.02928     130.87121      46.69810      43.65394
     6  H(1)              -0.00916     -40.95256     -14.61289     -13.66030
     7  H(1)              -0.00847     -37.87107     -13.51334     -12.63243
 --------------------------------------------------------
       Center         ----  Spin Dipole Couplings  ----
                      3XX-RR        3YY-RR        3ZZ-RR
 --------------------------------------------------------
     1   Atom        0.010575     -0.027937      0.017362
     2   Atom       -0.454027     -0.503238      0.957265
     3   Atom        0.012894     -0.004033     -0.008861
     4   Atom        0.012616     -0.004229     -0.008386
     5   Atom        0.009799     -0.014723      0.004924
     6   Atom       -0.045099      0.046973     -0.001874
     7   Atom       -0.033150      0.033021      0.000128
 --------------------------------------------------------
                        XY            XZ            YZ
 --------------------------------------------------------
     1   Atom       -0.001732      0.022411      0.000303
     2   Atom        0.003817      0.266568      0.026248
     3   Atom        0.012730     -0.001488     -0.001201
     4   Atom       -0.011563     -0.001112      0.000964
     5   Atom        0.000266      0.009510      0.001362
     6   Atom       -0.045330     -0.000342      0.025961
     7   Atom        0.053083     -0.005998     -0.026809
 --------------------------------------------------------


 ---------------------------------------------------------------------------------
              Anisotropic Spin Dipole Couplings in Principal Axis System
 ---------------------------------------------------------------------------------

       Atom             a.u.   MegaHertz   Gauss  10(-4) cm-1        Axes

              Baa    -0.0281    -3.766    -1.344    -1.256  0.0680  0.9969 -0.0402
     1 C(13)  Bbb    -0.0086    -1.151    -0.411    -0.384  0.7549 -0.0777 -0.6512
              Bcc     0.0366     4.918     1.755     1.640  0.6523 -0.0139  0.7578
 
              Baa    -0.5043   -67.670   -24.146   -22.572  0.5065  0.8555 -0.1077
     2 C(13)  Bbb    -0.5021   -67.379   -24.043   -22.475  0.8433 -0.5176 -0.1447
              Bcc     1.0064   135.049    48.189    45.048  0.1796  0.0176  0.9836
 
              Baa    -0.0109    -5.827    -2.079    -1.944 -0.4550  0.8722  0.1799
     3 H(1)   Bbb    -0.0089    -4.759    -1.698    -1.587  0.1419 -0.1284  0.9815
              Bcc     0.0198    10.586     3.777     3.531  0.8791  0.4721 -0.0653
 
              Baa    -0.0102    -5.434    -1.939    -1.813  0.4352  0.8776 -0.2011
     4 H(1)   Bbb    -0.0084    -4.476    -1.597    -1.493  0.1376  0.1559  0.9781
              Bcc     0.0186     9.910     3.536     3.306  0.8897 -0.4534 -0.0529
 
              Baa    -0.0148    -7.910    -2.822    -2.638  0.0194  0.9968 -0.0781
     5 H(1)   Bbb    -0.0024    -1.275    -0.455    -0.425 -0.6145  0.0735  0.7855
              Bcc     0.0172     9.184     3.277     3.064  0.7887  0.0327  0.6139
 
              Baa    -0.0652   -34.794   -12.415   -11.606  0.9019  0.4014 -0.1596
     6 H(1)   Bbb    -0.0082    -4.351    -1.553    -1.451  0.2654 -0.2234  0.9379
              Bcc     0.0734    39.145    13.968    13.057 -0.3408  0.8883  0.3080
 
              Baa    -0.0636   -33.960   -12.118   -11.328  0.8530 -0.5050 -0.1321
     7 H(1)   Bbb    -0.0085    -4.553    -1.625    -1.519  0.2840  0.2367  0.9292
              Bcc     0.0722    38.513    13.742    12.847  0.4380  0.8300 -0.3453
 

 ---------------------------------------------------------------------------------

 1\1\GINC-NODE32\SP\UB3LYP\6-31+G(d)\C2H5(2)\YANZ\12-Oct-2023\0\\# ub3l
 yp/6-31+g(d)\\tmpdir/M2_conf_0_39.gjf\\0,2\C,0,0.,0.,0.\C,0,1.5109,0.,
 0.\H,0,-0.34422,0.,-1.04265\H,0,-0.43635,0.8055,0.59452\H,0,-0.19318,-
 1.00278,0.42442\H,0,1.88768,-0.70911,-0.71908\H,0,1.98033,0.06477,0.98
 293\\Version=ES64L-G16RevA.03\State=2-A\HF=-79.154062\S2=0.753091\S2-1
 =0.\S2A=0.750007\RMSD=4.463e-09\Dipole=-0.1690916,-0.2165842,0.0892648
 \Quadrupole=-0.6020321,-0.0708384,0.6728705,-0.629872,0.3018195,0.5122
 194\PG=C01 [X(C2H5)]\\@


 LORD, MAN... WERE YE BUT WHYLES WHERE I AM, 
 THE GENTILES YE WAD NE'ER ENVY 'EM.        
 IT'S TRUE, THEY NEEDNA STARVE OR SWEAT,     
 THRO' WINTER'S CAULD OR SIMMER'S HEAT...  
 THEY'VE NAE SAIR WARK TO CRAZE THEIR BANES, 
 AND FILL AULD AGE WITH GRIPS AN' GRANES...  
                                             
 BUT HUMAN BODIES ARE SIC FOOLS              
 FOR A' THEIR COLLEGES AND SCHOOLS,           
 THAT WHEN NAE REAL ILLS PERPLEX THEM,       
 THEY MAK ENOW THEMSELVES TO VEX THEM,       
 AN' AYE THE LESS THEY HAE TO STURT THEM,    
 IN LIKE PROPORTION LESS WILL HURT THEM....  
                                             
                (ROBERT BURNS 'THE TWA DOGS')
 Job cpu time:       0 days  0 hours  0 minutes 17.3 seconds.
 Elapsed time:       0 days  0 hours  0 minutes  8.8 seconds.
 File lengths (MBytes):  RWF=      6 Int=      0 D2E=      0 Chk=      1 Scr=      1
 Normal termination of Gaussian 16 at Thu Oct 12 15:13:51 2023.
