 Entering Gaussian System, Link 0=g16
 Initial command:
 /share/apps/gaussian/g16/l1.exe "/tmp/58286.mgr/Gau-31272.inp" -scrdir="/tmp/58286.mgr/"
 Entering Link 1 = /share/apps/gaussian/g16/l1.exe PID=     31273.
  
 Copyright (c) 1988,1990,1992,1993,1995,1998,2003,2009,2016,
            Gaussian, Inc.  All Rights Reserved.
  
 This is part of the Gaussian(R) 16 program.  It is based on
 the Gaussian(R) 09 system (copyright 2009, Gaussian, Inc.),
 the Gaussian(R) 03 system (copyright 2003, Gaussian, Inc.),
 the Gaussian(R) 98 system (copyright 1998, Gaussian, Inc.),
 the Gaussian(R) 94 system (copyright 1995, Gaussian, Inc.),
 the Gaussian 92(TM) system (copyright 1992, Gaussian, Inc.),
 the Gaussian 90(TM) system (copyright 1990, Gaussian, Inc.),
 the Gaussian 88(TM) system (copyright 1988, Gaussian, Inc.),
 the Gaussian 86(TM) system (copyright 1986, Carnegie Mellon
 University), and the Gaussian 82(TM) system (copyright 1983,
 Carnegie Mellon University). Gaussian is a federally registered
 trademark of Gaussian, Inc.
  
 This software contains proprietary and confidential information,
 including trade secrets, belonging to Gaussian, Inc.
  
 This software is provided under written license and may be
 used, copied, transmitted, or stored only in accord with that
 written license.
  
 The following legend is applicable only to US Government
 contracts under FAR:
  
                    RESTRICTED RIGHTS LEGEND
  
 Use, reproduction and disclosure by the US Government is
 subject to restrictions as set forth in subparagraphs (a)
 and (c) of the Commercial Computer Software - Restricted
 Rights clause in FAR 52.227-19.
  
 Gaussian, Inc.
 340 Quinnipiac St., Bldg. 40, Wallingford CT 06492
  
  
 ---------------------------------------------------------------
 Warning -- This program may not be used in any manner that
 competes with the business of Gaussian, Inc. or will provide
 assistance to any competitor of Gaussian, Inc.  The licensee
 of this program is prohibited from giving any competitor of
 Gaussian, Inc. access to this program.  By using this program,
 the user acknowledges that Gaussian, Inc. is engaged in the
 business of creating and licensing software in the field of
 computational chemistry and represents and warrants to the
 licensee that it is not a competitor of Gaussian, Inc. and that
 it will not use this program in any manner prohibited above.
 ---------------------------------------------------------------
  

 Cite this work as:
 Gaussian 16, Revision A.03,
 M. J. Frisch, G. W. Trucks, H. B. Schlegel, G. E. Scuseria, 
 M. A. Robb, J. R. Cheeseman, G. Scalmani, V. Barone, 
 G. A. Petersson, H. Nakatsuji, X. Li, M. Caricato, A. V. Marenich, 
 J. Bloino, B. G. Janesko, R. Gomperts, B. Mennucci, H. P. Hratchian, 
 J. V. Ortiz, A. F. Izmaylov, J. L. Sonnenberg, D. Williams-Young, 
 F. Ding, F. Lipparini, F. Egidi, J. Goings, B. Peng, A. Petrone, 
 T. Henderson, D. Ranasinghe, V. G. Zakrzewski, J. Gao, N. Rega, 
 G. Zheng, W. Liang, M. Hada, M. Ehara, K. Toyota, R. Fukuda, 
 J. Hasegawa, M. Ishida, T. Nakajima, Y. Honda, O. Kitao, H. Nakai, 
 T. Vreven, K. Throssell, J. A. Montgomery, Jr., J. E. Peralta, 
 F. Ogliaro, M. J. Bearpark, J. J. Heyd, E. N. Brothers, K. N. Kudin, 
 V. N. Staroverov, T. A. Keith, R. Kobayashi, J. Normand, 
 K. Raghavachari, A. P. Rendell, J. C. Burant, S. S. Iyengar, 
 J. Tomasi, M. Cossi, J. M. Millam, M. Klene, C. Adamo, R. Cammi, 
 J. W. Ochterski, R. L. Martin, K. Morokuma, O. Farkas, 
 J. B. Foresman, and D. J. Fox, Gaussian, Inc., Wallingford CT, 2016.
 
 ******************************************
 Gaussian 16:  ES64L-G16RevA.03 25-Dec-2016
                12-Oct-2023 
 ******************************************
 %nprocshared=2
 Will use up to    2 processors via shared memory.
 %mem=2GB
 ------------------
 # ub3lyp/6-31+g(d)
 ------------------
 1/38=1,172=1/1;
 2/12=2,17=6,18=5,40=1/2;
 3/5=1,6=6,7=11,11=2,25=1,30=1,74=-5,116=2/1,2,3;
 4//1;
 5/5=2,38=5/2;
 6/7=2,8=2,9=2,10=2,28=1/1;
 99/5=1,9=1/99;
 -----------------------
 tmpdir/M2_conf_0_50.gjf
 -----------------------
 Symbolic Z-matrix:
 Charge =  0 Multiplicity = 3
 C                     0.        0.        0. 
 C                     1.529     0.        0. 
 C                     2.10964   0.        1.37123 
 H                    -0.34422  -0.7321    0.74239 
 H                    -0.43635  -0.1561   -0.9889 
 H                    -0.19318   1.01208   0.40173 
 H                     1.99843   0.64405  -0.74535 
 H                     1.35309   0.30787   2.11798 
 H                     2.77678  -0.80801   1.6729 
 
                          Input orientation:                          
 ---------------------------------------------------------------------
 Center     Atomic      Atomic             Coordinates (Angstroms)
 Number     Number       Type             X           Y           Z
 ---------------------------------------------------------------------
      1          6           0        0.000000    0.000000    0.000000
      2          6           0        1.529000    0.000000    0.000000
      3          6           0        2.109640    0.000000    1.371230
      4          1           0       -0.344220   -0.732100    0.742390
      5          1           0       -0.436350   -0.156100   -0.988900
      6          1           0       -0.193180    1.012080    0.401730
      7          1           0        1.998430    0.644050   -0.745350
      8          1           0        1.353090    0.307870    2.117980
      9          1           0        2.776780   -0.808010    1.672900
 ---------------------------------------------------------------------
                    Distance matrix (angstroms):
                    1          2          3          4          5
     1  C    0.000000
     2  C    1.529000   0.000000
     3  C    2.516119   1.489099   0.000000
     4  H    1.097999   2.143844   2.636824   0.000000
     5  H    1.092104   2.205650   3.475147   1.826918   0.000000
     6  H    1.105898   2.037547   2.695777   1.783543   1.832383
     7  H    2.228019   1.091197   2.215193   3.097607   2.574434
     8  H    2.532089   2.147456   1.106701   2.419638   3.615255
     9  H    3.340955   2.237952   1.090395   3.257645   4.223076
                    6          7          8          9
     6  H    0.000000
     7  H    2.500878   0.000000
     8  H    2.415031   2.954342   0.000000
     9  H    3.708000   2.926131   1.862841   0.000000
 Stoichiometry    C3H6(3)
 Framework group  C1[X(C3H6)]
 Deg. of freedom    21
 Full point group                 C1      NOp   1
 Largest Abelian subgroup         C1      NOp   1
 Largest concise Abelian subgroup C1      NOp   1
                         Standard orientation:                         
 ---------------------------------------------------------------------
 Center     Atomic      Atomic             Coordinates (Angstroms)
 Number     Number       Type             X           Y           Z
 ---------------------------------------------------------------------
      1          6           0       -1.197836   -0.234321   -0.038671
      2          6           0        0.072608    0.615401   -0.080923
      3          6           0        1.315464   -0.190415    0.071996
      4          1           0       -1.038679   -1.122765   -0.663920
      5          1           0       -2.101645    0.318657   -0.303316
      6          1           0       -1.181863   -0.553165    1.020147
      7          1           0        0.019873    1.565501    0.453157
      8          1           0        1.086870   -1.189181    0.490323
      9          1           0        2.074033   -0.163039   -0.710808
 ---------------------------------------------------------------------
 Rotational constants (GHZ):          36.3735740           9.5028860           8.1874934
 Standard basis: 6-31+G(d) (6D, 7F)
 There are    69 symmetry adapted cartesian basis functions of A   symmetry.
 There are    69 symmetry adapted basis functions of A   symmetry.
    69 basis functions,   120 primitive gaussians,    69 cartesian basis functions
    13 alpha electrons       11 beta electrons
       nuclear repulsion energy        69.0405267568 Hartrees.
 NAtoms=    9 NActive=    9 NUniq=    9 SFac= 1.00D+00 NAtFMM=   60 NAOKFM=F Big=F
 Integral buffers will be    131072 words long.
 Raffenetti 2 integral format.
 Two-electron integral symmetry is turned on.
 One-electron integrals computed using PRISM.
 NBasis=    69 RedAO= T EigKep=  2.80D-04  NBF=    69
 NBsUse=    69 1.00D-06 EigRej= -1.00D+00 NBFU=    69
 ExpMin= 4.38D-02 ExpMax= 3.05D+03 ExpMxC= 4.57D+02 IAcc=3 IRadAn=         5 AccDes= 0.00D+00
 Harris functional with IExCor=  402 and IRadAn=       5 diagonalized for initial guess.
 HarFok:  IExCor=  402 AccDes= 0.00D+00 IRadAn=         5 IDoV= 1 UseB2=F ITyADJ=14
 ICtDFT=  3500011 ScaDFX=  1.000000  1.000000  1.000000  1.000000
 FoFCou: FMM=F IPFlag=           0 FMFlag=      100000 FMFlg1=           0
         NFxFlg=           0 DoJE=T BraDBF=F KetDBF=T FulRan=T
         wScrn=  0.000000 ICntrl=       500 IOpCl=  0 I1Cent=   200000004 NGrid=           0
         NMat0=    1 NMatS0=      1 NMatT0=    0 NMatD0=    1 NMtDS0=    0 NMtDT0=    0
 Petite list used in FoFCou.
 Initial guess <Sx>= 0.0000 <Sy>= 0.0000 <Sz>= 1.0000 <S**2>= 2.0000 S= 1.0000
 Keep R1 and R2 ints in memory in canonical form, NReq=7619695.
 Requested convergence on RMS density matrix=1.00D-08 within 128 cycles.
 Requested convergence on MAX density matrix=1.00D-06.
 Requested convergence on             energy=1.00D-06.
 No special actions if energy rises.
 SCF Done:  E(UB3LYP) =  -117.792325770     A.U. after   13 cycles
            NFock= 13  Conv=0.58D-08     -V/T= 2.0105
 <Sx>= 0.0000 <Sy>= 0.0000 <Sz>= 1.0000 <S**2>= 2.0041 S= 1.0014
 <L.S>= 0.000000000000E+00
 Annihilation of the first spin contaminant:
 S**2 before annihilation     2.0041,   after     2.0000

 **********************************************************************

            Population analysis using the SCF density.

 **********************************************************************

 Orbital symmetries:
 Alpha Orbitals:
       Occupied  (A) (A) (A) (A) (A) (A) (A) (A) (A) (A) (A) (A)
                 (A)
       Virtual   (A) (A) (A) (A) (A) (A) (A) (A) (A) (A) (A) (A)
                 (A) (A) (A) (A) (A) (A) (A) (A) (A) (A) (A) (A)
                 (A) (A) (A) (A) (A) (A) (A) (A) (A) (A) (A) (A)
                 (A) (A) (A) (A) (A) (A) (A) (A) (A) (A) (A) (A)
                 (A) (A) (A) (A) (A) (A) (A) (A)
 Beta  Orbitals:
       Occupied  (A) (A) (A) (A) (A) (A) (A) (A) (A) (A) (A)
       Virtual   (A) (A) (A) (A) (A) (A) (A) (A) (A) (A) (A) (A)
                 (A) (A) (A) (A) (A) (A) (A) (A) (A) (A) (A) (A)
                 (A) (A) (A) (A) (A) (A) (A) (A) (A) (A) (A) (A)
                 (A) (A) (A) (A) (A) (A) (A) (A) (A) (A) (A) (A)
                 (A) (A) (A) (A) (A) (A) (A) (A) (A) (A)
 The electronic state is 3-A.
 Alpha  occ. eigenvalues --  -10.20799 -10.20654 -10.19564  -0.79469  -0.68556
 Alpha  occ. eigenvalues --   -0.57564  -0.46246  -0.43937  -0.40926  -0.38441
 Alpha  occ. eigenvalues --   -0.37006  -0.25856  -0.17792
 Alpha virt. eigenvalues --    0.01610   0.03189   0.03630   0.05034   0.06543
 Alpha virt. eigenvalues --    0.07870   0.08514   0.09296   0.09701   0.11888
 Alpha virt. eigenvalues --    0.13449   0.15678   0.17932   0.21371   0.22400
 Alpha virt. eigenvalues --    0.23274   0.27250   0.28019   0.29665   0.32506
 Alpha virt. eigenvalues --    0.61415   0.63072   0.64688   0.67025   0.68230
 Alpha virt. eigenvalues --    0.68730   0.71873   0.74698   0.78932   0.91240
 Alpha virt. eigenvalues --    0.92738   0.97201   0.97872   0.99505   1.03146
 Alpha virt. eigenvalues --    1.08802   1.15113   1.28329   1.41132   1.50044
 Alpha virt. eigenvalues --    1.76826   1.80265   1.88196   1.90175   1.96619
 Alpha virt. eigenvalues --    2.07076   2.18363   2.23489   2.26179   2.36917
 Alpha virt. eigenvalues --    2.41029   2.59953   2.69764   4.10508   4.22082
 Alpha virt. eigenvalues --    4.38780
  Beta  occ. eigenvalues --  -10.19524 -10.19451 -10.19307  -0.76783  -0.66124
  Beta  occ. eigenvalues --   -0.54757  -0.44973  -0.42123  -0.39727  -0.36795
  Beta  occ. eigenvalues --   -0.35817
  Beta virt. eigenvalues --   -0.10360  -0.02727   0.01882   0.03435   0.03947
  Beta virt. eigenvalues --    0.05334   0.06849   0.07875   0.08966   0.09821
  Beta virt. eigenvalues --    0.11145   0.12286   0.14224   0.16083   0.18587
  Beta virt. eigenvalues --    0.22549   0.23504   0.24664   0.28157   0.29669
  Beta virt. eigenvalues --    0.31781   0.33656   0.62457   0.63889   0.66208
  Beta virt. eigenvalues --    0.69523   0.71423   0.72331   0.74222   0.77418
  Beta virt. eigenvalues --    0.80792   0.92628   0.93692   0.97981   0.99267
  Beta virt. eigenvalues --    1.01368   1.04263   1.09358   1.17985   1.29772
  Beta virt. eigenvalues --    1.44541   1.54069   1.78906   1.83688   1.93711
  Beta virt. eigenvalues --    1.95239   1.99186   2.11393   2.21250   2.26021
  Beta virt. eigenvalues --    2.27289   2.41190   2.43326   2.62379   2.71803
  Beta virt. eigenvalues --    4.13460   4.23890   4.41268
          Condensed to atoms (all electrons):
               1          2          3          4          5          6
     1  C    5.488722   0.165619  -0.018844   0.401604   0.392894   0.404991
     2  C    0.165619   5.658571   0.132716  -0.092074  -0.060036  -0.053552
     3  C   -0.018844   0.132716   5.567842   0.023289   0.013188  -0.035501
     4  H    0.401604  -0.092074   0.023289   0.508276  -0.020724  -0.035053
     5  H    0.392894  -0.060036   0.013188  -0.020724   0.492621  -0.025813
     6  H    0.404991  -0.053552  -0.035501  -0.035053  -0.025813   0.532470
     7  H   -0.045641   0.351615  -0.030228   0.004328  -0.001544  -0.004013
     8  H    0.021719  -0.080915   0.377797  -0.000871   0.000160   0.002614
     9  H   -0.005193  -0.054508   0.391825   0.000583  -0.000107  -0.000109
               7          8          9
     1  C   -0.045641   0.021719  -0.005193
     2  C    0.351615  -0.080915  -0.054508
     3  C   -0.030228   0.377797   0.391825
     4  H    0.004328  -0.000871   0.000583
     5  H   -0.001544   0.000160  -0.000107
     6  H   -0.004013   0.002614  -0.000109
     7  H    0.536636   0.002556   0.001845
     8  H    0.002556   0.529793  -0.033782
     9  H    0.001845  -0.033782   0.503394
          Atomic-Atomic Spin Densities.
               1          2          3          4          5          6
     1  C    0.032861  -0.076633  -0.014978  -0.003669  -0.002093   0.046056
     2  C   -0.076633   1.414896  -0.234247  -0.004275  -0.010934  -0.068313
     3  C   -0.014978  -0.234247   1.265882   0.007409   0.006901   0.004445
     4  H   -0.003669  -0.004275   0.007409   0.015697   0.003575  -0.009508
     5  H   -0.002093  -0.010934   0.006901   0.003575   0.016814  -0.007161
     6  H    0.046056  -0.068313   0.004445  -0.009508  -0.007161   0.085961
     7  H   -0.011712  -0.003112  -0.015401   0.000420   0.002752  -0.002935
     8  H    0.009582  -0.029464   0.005154  -0.002352  -0.000162   0.005243
     9  H   -0.003586  -0.032118   0.014237   0.000521   0.000064  -0.000469
               7          8          9
     1  C   -0.011712   0.009582  -0.003586
     2  C   -0.003112  -0.029464  -0.032118
     3  C   -0.015401   0.005154   0.014237
     4  H    0.000420  -0.002352   0.000521
     5  H    0.002752  -0.000162   0.000064
     6  H   -0.002935   0.005243  -0.000469
     7  H    0.015111  -0.000416   0.001483
     8  H   -0.000416   0.010042  -0.007344
     9  H    0.001483  -0.007344   0.008821
 Mulliken charges and spin densities:
               1          2
     1  C   -0.805872  -0.024172
     2  C    0.032564   0.955800
     3  C   -0.422084   1.039401
     4  H    0.210643   0.007818
     5  H    0.209360   0.009756
     6  H    0.213966   0.053318
     7  H    0.184445  -0.013811
     8  H    0.180927  -0.009717
     9  H    0.196051  -0.018391
 Sum of Mulliken charges =  -0.00000   2.00000
 Mulliken charges and spin densities with hydrogens summed into heavy atoms:
               1          2
     1  C   -0.171903   0.046719
     2  C    0.217009   0.941989
     3  C   -0.045106   1.011292
 Electronic spatial extent (au):  <R**2>=            198.6871
 Charge=             -0.0000 electrons
 Dipole moment (field-independent basis, Debye):
    X=             -0.5708    Y=             -0.4405    Z=              0.1089  Tot=              0.7292
 Quadrupole moment (field-independent basis, Debye-Ang):
   XX=            -21.3515   YY=            -20.6646   ZZ=            -21.6561
   XY=             -0.5765   XZ=             -1.0782   YZ=              0.5611
 Traceless Quadrupole moment (field-independent basis, Debye-Ang):
   XX=             -0.1274   YY=              0.5594   ZZ=             -0.4320
   XY=             -0.5765   XZ=             -1.0782   YZ=              0.5611
 Octapole moment (field-independent basis, Debye-Ang**2):
  XXX=             -3.7317  YYY=             -0.6000  ZZZ=              0.3878  XYY=             -0.6968
  XXY=              0.7633  XXZ=             -3.7033  XZZ=             -1.2634  YZZ=             -1.0464
  YYZ=              1.2346  XYZ=             -0.1747
 Hexadecapole moment (field-independent basis, Debye-Ang**3):
 XXXX=           -190.1500 YYYY=            -66.1064 ZZZZ=            -40.0927 XXXY=             -3.7118
 XXXZ=             -6.5333 YYYX=             -0.8794 YYYZ=              2.6575 ZZZX=             -3.0402
 ZZZY=              1.2777 XXYY=            -43.8123 XXZZ=            -39.1281 YYZZ=            -18.4417
 XXYZ=             -0.2665 YYXZ=              0.6108 ZZXY=              0.3877
 N-N= 6.904052675682D+01 E-N=-4.097884643090D+02  KE= 1.165633585448D+02
                          Isotropic Fermi Contact Couplings
        Atom                 a.u.       MegaHertz       Gauss      10(-4) cm-1
     1  C(13)              0.01315       7.39014       2.63699       2.46509
     2  C(13)              0.16558      93.06966      33.20957      31.04470
     3  C(13)              0.17415      97.89008      34.92961      32.65262
     4  H(1)               0.00529      11.81229       4.21492       3.94015
     5  H(1)               0.00473      10.57484       3.77336       3.52739
     6  H(1)               0.02569      57.42663      20.49125      19.15546
     7  H(1)               0.00625      13.97422       4.98635       4.66130
     8  H(1)               0.00481      10.74867       3.83539       3.58537
     9  H(1)               0.00428       9.56211       3.41200       3.18958
 --------------------------------------------------------
       Center         ----  Spin Dipole Couplings  ----
                      3XX-RR        3YY-RR        3ZZ-RR
 --------------------------------------------------------
     1   Atom        0.040424     -0.028972     -0.011451
     2   Atom       -0.484490     -0.358970      0.843460
     3   Atom       -0.142779     -0.184421      0.327200
     4   Atom        0.003488      0.011742     -0.015230
     5   Atom        0.024908     -0.012686     -0.012223
     6   Atom        0.010330     -0.008987     -0.001343
     7   Atom       -0.061348      0.056028      0.005319
     8   Atom       -0.048494      0.058062     -0.009568
     9   Atom        0.031812     -0.056800      0.024988
 --------------------------------------------------------
                        XY            XZ            YZ
 --------------------------------------------------------
     1   Atom        0.037683     -0.038757     -0.021588
     2   Atom        0.029541     -0.098898     -0.470255
     3   Atom        0.325957      0.556130      0.519293
     4   Atom        0.019230      0.007649      0.009227
     5   Atom        0.001401      0.001915     -0.001875
     6   Atom        0.014209     -0.010376     -0.010329
     7   Atom       -0.018851     -0.008686      0.040139
     8   Atom        0.022544      0.011361     -0.040526
     9   Atom        0.008266     -0.051845      0.017668
 --------------------------------------------------------


 ---------------------------------------------------------------------------------
              Anisotropic Spin Dipole Couplings in Principal Axis System
 ---------------------------------------------------------------------------------

       Atom             a.u.   MegaHertz   Gauss  10(-4) cm-1        Axes

              Baa    -0.0466    -6.251    -2.231    -2.085 -0.2897  0.9243  0.2484
     1 C(13)  Bbb    -0.0321    -4.301    -1.535    -1.435  0.5003 -0.0751  0.8626
              Bcc     0.0786    10.552     3.765     3.520  0.8160  0.3742 -0.4407
 
              Baa    -0.5216   -70.000   -24.978   -23.350  0.1408  0.9329  0.3316
     2 C(13)  Bbb    -0.4910   -65.885   -23.509   -21.977  0.9876 -0.1556  0.0184
              Bcc     1.0126   135.885    48.487    45.326 -0.0687 -0.3249  0.9433
 
              Baa    -0.5202   -69.811   -24.910   -23.286 -0.5694 -0.4797  0.6676
     3 C(13)  Bbb    -0.4902   -65.777   -23.471   -21.941 -0.6617  0.7493 -0.0259
              Bcc     1.0104   135.587    48.381    45.227  0.4879  0.4565  0.7441
 
              Baa    -0.0184    -9.806    -3.499    -3.271 -0.1773 -0.1830  0.9670
     4 H(1)   Bbb    -0.0120    -6.429    -2.294    -2.145  0.7734 -0.6336  0.0219
              Bcc     0.0304    16.235     5.793     5.415  0.6087  0.7517  0.2539
 
              Baa    -0.0145    -7.726    -2.757    -2.577 -0.0588  0.7428  0.6669
     5 H(1)   Bbb    -0.0106    -5.641    -2.013    -1.882 -0.0137 -0.6686  0.7435
              Bcc     0.0251    13.367     4.770     4.459  0.9982  0.0346  0.0495
 
              Baa    -0.0181    -9.669    -3.450    -3.225 -0.3134  0.8829  0.3497
     6 H(1)   Bbb    -0.0072    -3.844    -1.372    -1.282  0.5743 -0.1171  0.8102
              Bcc     0.0253    13.513     4.822     4.508  0.7563  0.4548 -0.4704
 
              Baa    -0.0644   -34.361   -12.261   -11.462  0.9891  0.1408  0.0422
     7 H(1)   Bbb    -0.0168    -8.941    -3.190    -2.982  0.0304 -0.4766  0.8786
              Bcc     0.0812    43.302    15.451    14.444 -0.1438  0.8678  0.4757
 
              Baa    -0.0620   -33.086   -11.806   -11.036  0.8562 -0.3022 -0.4190
     8 H(1)   Bbb    -0.0170    -9.062    -3.234    -3.023  0.5013  0.2897  0.8154
              Bcc     0.0790    42.148    15.039    14.059  0.1250  0.9082 -0.3995
 
              Baa    -0.0653   -34.837   -12.431   -11.620 -0.2497  0.9132 -0.3221
     9 H(1)   Bbb    -0.0153    -8.183    -2.920    -2.730  0.6433  0.4051  0.6496
              Bcc     0.0806    43.020    15.351    14.350  0.7237 -0.0450 -0.6886
 

 ---------------------------------------------------------------------------------

 1\1\GINC-NODE32\SP\UB3LYP\6-31+G(d)\C3H6(3)\YANZ\12-Oct-2023\0\\# ub3l
 yp/6-31+g(d)\\tmpdir/M2_conf_0_50.gjf\\0,3\C,0,0.,0.,0.\C,0,1.529,0.,0
 .\C,0,2.10964,0.,1.37123\H,0,-0.34422,-0.7321,0.74239\H,0,-0.43635,-0.
 1561,-0.9889\H,0,-0.19318,1.01208,0.40173\H,0,1.99843,0.64405,-0.74535
 \H,0,1.35309,0.30787,2.11798\H,0,2.77678,-0.80801,1.6729\\Version=ES64
 L-G16RevA.03\State=3-A\HF=-117.7923258\S2=2.004122\S2-1=0.\S2A=2.00000
 9\RMSD=5.813e-09\Dipole=-0.2840978,0.0323546,0.0233762\Quadrupole=-0.3
 089872,-0.1357528,0.4447401,-0.4245497,-0.1035193,-0.8922357\PG=C01 [X
 (C3H6)]\\@


 ...THOSE SCIENCES ARE VAIN AND FULL OF ERRORS WHICH 
 ARE NOT BORN FROM EXPERIMENT, THE MOTHER OF CERTAINTY...

                          -- LEONARDO DA VINCI, 1452-1519
 Job cpu time:       0 days  0 hours  0 minutes 36.0 seconds.
 Elapsed time:       0 days  0 hours  0 minutes 18.3 seconds.
 File lengths (MBytes):  RWF=      6 Int=      0 D2E=      0 Chk=      1 Scr=      1
 Normal termination of Gaussian 16 at Thu Oct 12 15:14:29 2023.
