 Entering Gaussian System, Link 0=g16
 Initial command:
 /share/apps/gaussian/g16/l1.exe "/tmp/58286.mgr/Gau-31421.inp" -scrdir="/tmp/58286.mgr/"
 Entering Link 1 = /share/apps/gaussian/g16/l1.exe PID=     31422.
  
 Copyright (c) 1988,1990,1992,1993,1995,1998,2003,2009,2016,
            Gaussian, Inc.  All Rights Reserved.
  
 This is part of the Gaussian(R) 16 program.  It is based on
 the Gaussian(R) 09 system (copyright 2009, Gaussian, Inc.),
 the Gaussian(R) 03 system (copyright 2003, Gaussian, Inc.),
 the Gaussian(R) 98 system (copyright 1998, Gaussian, Inc.),
 the Gaussian(R) 94 system (copyright 1995, Gaussian, Inc.),
 the Gaussian 92(TM) system (copyright 1992, Gaussian, Inc.),
 the Gaussian 90(TM) system (copyright 1990, Gaussian, Inc.),
 the Gaussian 88(TM) system (copyright 1988, Gaussian, Inc.),
 the Gaussian 86(TM) system (copyright 1986, Carnegie Mellon
 University), and the Gaussian 82(TM) system (copyright 1983,
 Carnegie Mellon University). Gaussian is a federally registered
 trademark of Gaussian, Inc.
  
 This software contains proprietary and confidential information,
 including trade secrets, belonging to Gaussian, Inc.
  
 This software is provided under written license and may be
 used, copied, transmitted, or stored only in accord with that
 written license.
  
 The following legend is applicable only to US Government
 contracts under FAR:
  
                    RESTRICTED RIGHTS LEGEND
  
 Use, reproduction and disclosure by the US Government is
 subject to restrictions as set forth in subparagraphs (a)
 and (c) of the Commercial Computer Software - Restricted
 Rights clause in FAR 52.227-19.
  
 Gaussian, Inc.
 340 Quinnipiac St., Bldg. 40, Wallingford CT 06492
  
  
 ---------------------------------------------------------------
 Warning -- This program may not be used in any manner that
 competes with the business of Gaussian, Inc. or will provide
 assistance to any competitor of Gaussian, Inc.  The licensee
 of this program is prohibited from giving any competitor of
 Gaussian, Inc. access to this program.  By using this program,
 the user acknowledges that Gaussian, Inc. is engaged in the
 business of creating and licensing software in the field of
 computational chemistry and represents and warrants to the
 licensee that it is not a competitor of Gaussian, Inc. and that
 it will not use this program in any manner prohibited above.
 ---------------------------------------------------------------
  

 Cite this work as:
 Gaussian 16, Revision A.03,
 M. J. Frisch, G. W. Trucks, H. B. Schlegel, G. E. Scuseria, 
 M. A. Robb, J. R. Cheeseman, G. Scalmani, V. Barone, 
 G. A. Petersson, H. Nakatsuji, X. Li, M. Caricato, A. V. Marenich, 
 J. Bloino, B. G. Janesko, R. Gomperts, B. Mennucci, H. P. Hratchian, 
 J. V. Ortiz, A. F. Izmaylov, J. L. Sonnenberg, D. Williams-Young, 
 F. Ding, F. Lipparini, F. Egidi, J. Goings, B. Peng, A. Petrone, 
 T. Henderson, D. Ranasinghe, V. G. Zakrzewski, J. Gao, N. Rega, 
 G. Zheng, W. Liang, M. Hada, M. Ehara, K. Toyota, R. Fukuda, 
 J. Hasegawa, M. Ishida, T. Nakajima, Y. Honda, O. Kitao, H. Nakai, 
 T. Vreven, K. Throssell, J. A. Montgomery, Jr., J. E. Peralta, 
 F. Ogliaro, M. J. Bearpark, J. J. Heyd, E. N. Brothers, K. N. Kudin, 
 V. N. Staroverov, T. A. Keith, R. Kobayashi, J. Normand, 
 K. Raghavachari, A. P. Rendell, J. C. Burant, S. S. Iyengar, 
 J. Tomasi, M. Cossi, J. M. Millam, M. Klene, C. Adamo, R. Cammi, 
 J. W. Ochterski, R. L. Martin, K. Morokuma, O. Farkas, 
 J. B. Foresman, and D. J. Fox, Gaussian, Inc., Wallingford CT, 2016.
 
 ******************************************
 Gaussian 16:  ES64L-G16RevA.03 25-Dec-2016
                12-Oct-2023 
 ******************************************
 %nprocshared=2
 Will use up to    2 processors via shared memory.
 %mem=2GB
 ------------------
 # ub3lyp/6-31+g(d)
 ------------------
 1/38=1,172=1/1;
 2/12=2,17=6,18=5,40=1/2;
 3/5=1,6=6,7=11,11=2,25=1,30=1,74=-5,116=2/1,2,3;
 4//1;
 5/5=2,38=5/2;
 6/7=2,8=2,9=2,10=2,28=1/1;
 99/5=1,9=1/99;
 -----------------------
 tmpdir/M2_conf_0_44.gjf
 -----------------------
 Symbolic Z-matrix:
 Charge =  0 Multiplicity = 1
 C                     0.        0.        0. 
 C                     1.5168    0.        0. 
 C                     2.10048   0.        1.41191 
 O                    -0.49274  -0.88214   0.71307 
 H                    -0.59469   0.6217   -0.51578 
 H                     1.86378  -1.00225  -0.31639 
 H                     1.94457   0.8154   -0.58722 
 O                     1.6937   -0.85874   2.10886 
 H                     2.87625   0.70343   1.69694 
 
                          Input orientation:                          
 ---------------------------------------------------------------------
 Center     Atomic      Atomic             Coordinates (Angstroms)
 Number     Number       Type             X           Y           Z
 ---------------------------------------------------------------------
      1          6           0        0.000000    0.000000    0.000000
      2          6           0        1.516800    0.000000    0.000000
      3          6           0        2.100480    0.000000    1.411910
      4          8           0       -0.492740   -0.882140    0.713070
      5          1           0       -0.594690    0.621700   -0.515780
      6          1           0        1.863780   -1.002250   -0.316390
      7          1           0        1.944570    0.815400   -0.587220
      8          8           0        1.693700   -0.858740    2.108860
      9          1           0        2.876250    0.703430    1.696940
 ---------------------------------------------------------------------
                    Distance matrix (angstroms):
                    1          2          3          4          5
     1  C    0.000000
     2  C    1.516800   0.000000
     3  C    2.530910   1.527800   0.000000
     4  O    1.236702   2.307572   2.826896   0.000000
     5  H    1.003093   2.260737   3.371415   1.944737   0.000000
     6  H    2.139692   1.106798   2.011853   2.574374   2.953141
     7  H    2.188848   1.092104   2.164649   3.242357   2.547639
     8  O    2.837842   2.283860   1.178407   2.594089   3.783803
     9  H    3.412804   2.285284   1.085299   3.851250   4.117066
                    6          7          8          9
     6  H    0.000000
     7  H    1.839491   0.000000
     8  O    2.435438   3.183477   0.000000
     9  H    2.826294   2.469403   2.002118   0.000000
 Stoichiometry    C3H4O2
 Framework group  C1[X(C3H4O2)]
 Deg. of freedom    21
 Full point group                 C1      NOp   1
 Largest Abelian subgroup         C1      NOp   1
 Largest concise Abelian subgroup C1      NOp   1
                         Standard orientation:                         
 ---------------------------------------------------------------------
 Center     Atomic      Atomic             Coordinates (Angstroms)
 Number     Number       Type             X           Y           Z
 ---------------------------------------------------------------------
      1          6           0        1.269539    0.331288   -0.200088
      2          6           0       -0.009601    1.004432    0.259651
      3          6           0       -1.260480    0.265338   -0.212804
      4          8           0        1.310887   -0.877292    0.058867
      5          1           0        2.041874    0.774374   -0.662007
      6          1           0       -0.122027    0.830127    1.346841
      7          1           0       -0.063104    2.058456   -0.021173
      8          8           0       -1.283199   -0.880811    0.060089
      9          1           0       -2.074999    0.795515   -0.695863
 ---------------------------------------------------------------------
 Rotational constants (GHZ):          10.1835202           4.7904808           3.4682695
 Standard basis: 6-31+G(d) (6D, 7F)
 There are   103 symmetry adapted cartesian basis functions of A   symmetry.
 There are   103 symmetry adapted basis functions of A   symmetry.
   103 basis functions,   176 primitive gaussians,   103 cartesian basis functions
    19 alpha electrons       19 beta electrons
       nuclear repulsion energy       164.0146728530 Hartrees.
 NAtoms=    9 NActive=    9 NUniq=    9 SFac= 1.00D+00 NAtFMM=   60 NAOKFM=F Big=F
 Integral buffers will be    131072 words long.
 Raffenetti 2 integral format.
 Two-electron integral symmetry is turned on.
 One-electron integrals computed using PRISM.
 NBasis=   103 RedAO= T EigKep=  1.87D-04  NBF=   103
 NBsUse=   103 1.00D-06 EigRej= -1.00D+00 NBFU=   103
 ExpMin= 4.38D-02 ExpMax= 5.48D+03 ExpMxC= 8.25D+02 IAcc=3 IRadAn=         5 AccDes= 0.00D+00
 Harris functional with IExCor=  402 and IRadAn=       5 diagonalized for initial guess.
 HarFok:  IExCor=  402 AccDes= 0.00D+00 IRadAn=         5 IDoV= 1 UseB2=F ITyADJ=14
 ICtDFT=  3500011 ScaDFX=  1.000000  1.000000  1.000000  1.000000
 FoFCou: FMM=F IPFlag=           0 FMFlag=      100000 FMFlg1=           0
         NFxFlg=           0 DoJE=T BraDBF=F KetDBF=T FulRan=T
         wScrn=  0.000000 ICntrl=       500 IOpCl=  0 I1Cent=   200000004 NGrid=           0
         NMat0=    1 NMatS0=      1 NMatT0=    0 NMatD0=    1 NMtDS0=    0 NMtDT0=    0
 Petite list used in FoFCou.
 Initial guess <Sx>= 0.0000 <Sy>= 0.0000 <Sz>= 0.0000 <S**2>=-0.0000 S=-0.0000
 Keep R1 and R2 ints in memory in canonical form, NReq=30543755.
 Requested convergence on RMS density matrix=1.00D-08 within 128 cycles.
 Requested convergence on MAX density matrix=1.00D-06.
 Requested convergence on             energy=1.00D-06.
 No special actions if energy rises.
 SCF Done:  E(UB3LYP) =  -267.122880749     A.U. after   12 cycles
            NFock= 12  Conv=0.60D-08     -V/T= 2.0081
 <Sx>= 0.0000 <Sy>= 0.0000 <Sz>= 0.0000 <S**2>=-0.0000 S=-0.0000
 <L.S>= 0.000000000000E+00
 Annihilation of the first spin contaminant:
 S**2 before annihilation    -0.0000,   after     0.0000

 **********************************************************************

            Population analysis using the SCF density.

 **********************************************************************

 Orbital symmetries:
 Alpha Orbitals:
       Occupied  (A) (A) (A) (A) (A) (A) (A) (A) (A) (A) (A) (A)
                 (A) (A) (A) (A) (A) (A) (A)
       Virtual   (A) (A) (A) (A) (A) (A) (A) (A) (A) (A) (A) (A)
                 (A) (A) (A) (A) (A) (A) (A) (A) (A) (A) (A) (A)
                 (A) (A) (A) (A) (A) (A) (A) (A) (A) (A) (A) (A)
                 (A) (A) (A) (A) (A) (A) (A) (A) (A) (A) (A) (A)
                 (A) (A) (A) (A) (A) (A) (A) (A) (A) (A) (A) (A)
                 (A) (A) (A) (A) (A) (A) (A) (A) (A) (A) (A) (A)
                 (A) (A) (A) (A) (A) (A) (A) (A) (A) (A) (A) (A)
 Beta  Orbitals:
       Occupied  (A) (A) (A) (A) (A) (A) (A) (A) (A) (A) (A) (A)
                 (A) (A) (A) (A) (A) (A) (A)
       Virtual   (A) (A) (A) (A) (A) (A) (A) (A) (A) (A) (A) (A)
                 (A) (A) (A) (A) (A) (A) (A) (A) (A) (A) (A) (A)
                 (A) (A) (A) (A) (A) (A) (A) (A) (A) (A) (A) (A)
                 (A) (A) (A) (A) (A) (A) (A) (A) (A) (A) (A) (A)
                 (A) (A) (A) (A) (A) (A) (A) (A) (A) (A) (A) (A)
                 (A) (A) (A) (A) (A) (A) (A) (A) (A) (A) (A) (A)
                 (A) (A) (A) (A) (A) (A) (A) (A) (A) (A) (A) (A)
 The electronic state is 1-A.
 Alpha  occ. eigenvalues --  -19.16997 -19.16447 -10.29708 -10.29211 -10.22231
 Alpha  occ. eigenvalues --   -1.09009  -1.04967  -0.78640  -0.65053  -0.60094
 Alpha  occ. eigenvalues --   -0.50883  -0.49397  -0.47698  -0.44781  -0.42287
 Alpha  occ. eigenvalues --   -0.39236  -0.37326  -0.28846  -0.25517
 Alpha virt. eigenvalues --   -0.06792  -0.04186   0.00351   0.02357   0.02732
 Alpha virt. eigenvalues --    0.04300   0.06483   0.06751   0.07701   0.08257
 Alpha virt. eigenvalues --    0.09257   0.11731   0.13230   0.15405   0.17250
 Alpha virt. eigenvalues --    0.19925   0.22434   0.23579   0.23972   0.24839
 Alpha virt. eigenvalues --    0.26313   0.27802   0.29119   0.29642   0.31510
 Alpha virt. eigenvalues --    0.32055   0.34165   0.35194   0.42603   0.44457
 Alpha virt. eigenvalues --    0.63725   0.64019   0.64687   0.67610   0.70204
 Alpha virt. eigenvalues --    0.72086   0.77801   0.79642   0.85951   0.93064
 Alpha virt. eigenvalues --    0.96241   0.99878   1.02562   1.06530   1.13231
 Alpha virt. eigenvalues --    1.13635   1.19120   1.23459   1.24327   1.24616
 Alpha virt. eigenvalues --    1.35686   1.36456   1.48087   1.49127   1.52668
 Alpha virt. eigenvalues --    1.55412   1.59312   1.61711   1.75988   1.78590
 Alpha virt. eigenvalues --    1.82306   1.83223   1.84588   1.98987   2.03158
 Alpha virt. eigenvalues --    2.08524   2.11929   2.20047   2.22735   2.32270
 Alpha virt. eigenvalues --    2.39200   2.48041   2.54949   2.59873   2.71691
 Alpha virt. eigenvalues --    2.82607   2.89650   3.00339   3.08397   4.08578
 Alpha virt. eigenvalues --    4.15007   4.22133   4.34886   4.48589
  Beta  occ. eigenvalues --  -19.16997 -19.16447 -10.29708 -10.29211 -10.22231
  Beta  occ. eigenvalues --   -1.09009  -1.04967  -0.78640  -0.65053  -0.60094
  Beta  occ. eigenvalues --   -0.50883  -0.49397  -0.47698  -0.44781  -0.42287
  Beta  occ. eigenvalues --   -0.39236  -0.37326  -0.28846  -0.25517
  Beta virt. eigenvalues --   -0.06792  -0.04186   0.00351   0.02357   0.02732
  Beta virt. eigenvalues --    0.04300   0.06483   0.06751   0.07701   0.08257
  Beta virt. eigenvalues --    0.09257   0.11731   0.13230   0.15405   0.17250
  Beta virt. eigenvalues --    0.19925   0.22434   0.23579   0.23972   0.24839
  Beta virt. eigenvalues --    0.26313   0.27802   0.29119   0.29642   0.31510
  Beta virt. eigenvalues --    0.32055   0.34165   0.35194   0.42603   0.44457
  Beta virt. eigenvalues --    0.63725   0.64019   0.64687   0.67610   0.70204
  Beta virt. eigenvalues --    0.72086   0.77801   0.79642   0.85951   0.93064
  Beta virt. eigenvalues --    0.96241   0.99878   1.02562   1.06530   1.13231
  Beta virt. eigenvalues --    1.13635   1.19120   1.23459   1.24327   1.24616
  Beta virt. eigenvalues --    1.35686   1.36456   1.48087   1.49127   1.52668
  Beta virt. eigenvalues --    1.55412   1.59312   1.61711   1.75988   1.78590
  Beta virt. eigenvalues --    1.82306   1.83223   1.84588   1.98987   2.03158
  Beta virt. eigenvalues --    2.08524   2.11929   2.20047   2.22735   2.32270
  Beta virt. eigenvalues --    2.39200   2.48041   2.54949   2.59873   2.71691
  Beta virt. eigenvalues --    2.82607   2.89650   3.00339   3.08397   4.08578
  Beta virt. eigenvalues --    4.15007   4.22133   4.34886   4.48589
          Condensed to atoms (all electrons):
               1          2          3          4          5          6
     1  C    4.916837   0.041555   0.007263   0.510703   0.443237  -0.027874
     2  C    0.041555   6.397955   0.013706  -0.161368  -0.164670   0.388375
     3  C    0.007263   0.013706   4.971497  -0.019153   0.000295  -0.025289
     4  O    0.510703  -0.161368  -0.019153   8.076766  -0.061953  -0.010413
     5  H    0.443237  -0.164670   0.000295  -0.061953   0.595145   0.001707
     6  H   -0.027874   0.388375  -0.025289  -0.010413   0.001707   0.447584
     7  H   -0.011820   0.296732  -0.017470   0.008485   0.003556  -0.024552
     8  O   -0.015552  -0.175604   0.512335  -0.020803  -0.000456  -0.015593
     9  H    0.005026  -0.178536   0.444721  -0.000052  -0.000225   0.002481
               7          8          9
     1  C   -0.011820  -0.015552   0.005026
     2  C    0.296732  -0.175604  -0.178536
     3  C   -0.017470   0.512335   0.444721
     4  O    0.008485  -0.020803  -0.000052
     5  H    0.003556  -0.000456  -0.000225
     6  H   -0.024552  -0.015593   0.002481
     7  H    0.540744   0.009259   0.004712
     8  O    0.009259   8.039123  -0.061143
     9  H    0.004712  -0.061143   0.611102
          Atomic-Atomic Spin Densities.
               1          2          3          4          5          6
     1  C   -0.000000   0.000000  -0.000000  -0.000000  -0.000000   0.000000
     2  C    0.000000  -0.000000   0.000000  -0.000000   0.000000  -0.000000
     3  C   -0.000000   0.000000  -0.000000   0.000000  -0.000000   0.000000
     4  O   -0.000000  -0.000000   0.000000   0.000000   0.000000  -0.000000
     5  H   -0.000000   0.000000  -0.000000   0.000000   0.000000  -0.000000
     6  H    0.000000  -0.000000   0.000000  -0.000000  -0.000000   0.000000
     7  H   -0.000000   0.000000  -0.000000  -0.000000  -0.000000   0.000000
     8  O   -0.000000   0.000000  -0.000000  -0.000000  -0.000000  -0.000000
     9  H   -0.000000   0.000000  -0.000000   0.000000   0.000000  -0.000000
               7          8          9
     1  C   -0.000000  -0.000000  -0.000000
     2  C    0.000000   0.000000   0.000000
     3  C   -0.000000  -0.000000  -0.000000
     4  O   -0.000000  -0.000000   0.000000
     5  H   -0.000000  -0.000000   0.000000
     6  H    0.000000  -0.000000  -0.000000
     7  H   -0.000000  -0.000000  -0.000000
     8  O   -0.000000  -0.000000  -0.000000
     9  H   -0.000000  -0.000000  -0.000000
 Mulliken charges and spin densities:
               1          2
     1  C    0.130625   0.000000
     2  C   -0.458146  -0.000000
     3  C    0.112095   0.000000
     4  O   -0.322213   0.000000
     5  H    0.183364   0.000000
     6  H    0.263573   0.000000
     7  H    0.190354  -0.000000
     8  O   -0.271565  -0.000000
     9  H    0.171914  -0.000000
 Sum of Mulliken charges =  -0.00000  -0.00000
 Mulliken charges and spin densities with hydrogens summed into heavy atoms:
               1          2
     1  C    0.313989   0.000000
     2  C   -0.004219  -0.000000
     3  C    0.284008   0.000000
     4  O   -0.322213   0.000000
     8  O   -0.271565  -0.000000
 Electronic spatial extent (au):  <R**2>=            365.3563
 Charge=             -0.0000 electrons
 Dipole moment (field-independent basis, Debye):
    X=             -0.2120    Y=              4.6571    Z=             -0.6877  Tot=              4.7124
 Quadrupole moment (field-independent basis, Debye-Ang):
   XX=            -28.7862   YY=            -31.9494   ZZ=            -27.2862
   XY=              0.3513   XZ=             -0.2942   YZ=             -0.1034
 Traceless Quadrupole moment (field-independent basis, Debye-Ang):
   XX=              0.5544   YY=             -2.6088   ZZ=              2.0544
   XY=              0.3513   XZ=             -0.2942   YZ=             -0.1034
 Octapole moment (field-independent basis, Debye-Ang**2):
  XXX=              0.1733  YYY=             -1.2415  ZZZ=              1.2740  XYY=             -0.1307
  XXY=              9.0580  XXZ=             -2.7459  XZZ=             -0.2545  YZZ=             -1.1460
  YYZ=             -0.9564  XYZ=             -0.3076
 Hexadecapole moment (field-independent basis, Debye-Ang**3):
 XXXX=           -266.2548 YYYY=           -147.4128 ZZZZ=            -41.2514 XXXY=              2.5790
 XXXZ=             -1.0777 YYYX=              0.5530 YYYZ=             -2.5405 ZZZX=             -1.0044
 ZZZY=             -0.1777 XXYY=            -76.7328 XXZZ=            -50.4836 YYZZ=            -32.3252
 XXYZ=             -2.5168 YYXZ=             -0.2341 ZZXY=              0.2029
 N-N= 1.640146728530D+02 E-N=-9.530042359116D+02  KE= 2.649751223593D+02
                          Isotropic Fermi Contact Couplings
        Atom                 a.u.       MegaHertz       Gauss      10(-4) cm-1
     1  C(13)             -0.00000      -0.00000      -0.00000      -0.00000
     2  C(13)             -0.00000      -0.00000      -0.00000      -0.00000
     3  C(13)             -0.00000      -0.00000      -0.00000      -0.00000
     4  O(17)             -0.00000       0.00000       0.00000       0.00000
     5  H(1)              -0.00000      -0.00000      -0.00000      -0.00000
     6  H(1)               0.00000       0.00000       0.00000       0.00000
     7  H(1)              -0.00000      -0.00000      -0.00000      -0.00000
     8  O(17)              0.00000      -0.00000      -0.00000      -0.00000
     9  H(1)              -0.00000      -0.00000      -0.00000      -0.00000
 --------------------------------------------------------
       Center         ----  Spin Dipole Couplings  ----
                      3XX-RR        3YY-RR        3ZZ-RR
 --------------------------------------------------------
     1   Atom        0.000000      0.000000      0.000000
     2   Atom        0.000000      0.000000      0.000000
     3   Atom        0.000000      0.000000      0.000000
     4   Atom        0.000000      0.000000      0.000000
     5   Atom        0.000000      0.000000      0.000000
     6   Atom        0.000000      0.000000      0.000000
     7   Atom        0.000000      0.000000      0.000000
     8   Atom        0.000000      0.000000      0.000000
     9   Atom        0.000000      0.000000      0.000000
 --------------------------------------------------------
                        XY            XZ            YZ
 --------------------------------------------------------
     1   Atom        0.000000      0.000000      0.000000
     2   Atom        0.000000      0.000000      0.000000
     3   Atom        0.000000      0.000000      0.000000
     4   Atom        0.000000      0.000000      0.000000
     5   Atom        0.000000      0.000000      0.000000
     6   Atom        0.000000      0.000000      0.000000
     7   Atom        0.000000      0.000000      0.000000
     8   Atom        0.000000      0.000000      0.000000
     9   Atom        0.000000      0.000000      0.000000
 --------------------------------------------------------


 ---------------------------------------------------------------------------------
              Anisotropic Spin Dipole Couplings in Principal Axis System
 ---------------------------------------------------------------------------------

       Atom             a.u.   MegaHertz   Gauss  10(-4) cm-1        Axes

              Baa     0.0000     0.000     0.000     0.000  1.0000  0.0000  0.0000
     1 C(13)  Bbb     0.0000     0.000     0.000     0.000 -0.0000  1.0000  0.0000
              Bcc     0.0000     0.000     0.000     0.000  0.0000  0.0000  1.0000
 
              Baa     0.0000     0.000     0.000     0.000  1.0000  0.0000  0.0000
     2 C(13)  Bbb     0.0000     0.000     0.000     0.000 -0.0000  1.0000  0.0000
              Bcc     0.0000     0.000     0.000     0.000  0.0000  0.0000  1.0000
 
              Baa     0.0000     0.000     0.000     0.000  1.0000  0.0000  0.0000
     3 C(13)  Bbb     0.0000     0.000     0.000     0.000 -0.0000  1.0000  0.0000
              Bcc     0.0000     0.000     0.000     0.000  0.0000  0.0000  1.0000
 
              Baa     0.0000    -0.000    -0.000    -0.000  1.0000  0.0000  0.0000
     4 O(17)  Bbb     0.0000    -0.000    -0.000    -0.000 -0.0000  1.0000  0.0000
              Bcc     0.0000    -0.000    -0.000    -0.000  0.0000  0.0000  1.0000
 
              Baa     0.0000     0.000     0.000     0.000  1.0000  0.0000  0.0000
     5 H(1)   Bbb     0.0000     0.000     0.000     0.000 -0.0000  1.0000  0.0000
              Bcc     0.0000     0.000     0.000     0.000  0.0000  0.0000  1.0000
 
              Baa     0.0000     0.000     0.000     0.000  1.0000  0.0000  0.0000
     6 H(1)   Bbb     0.0000     0.000     0.000     0.000 -0.0000  1.0000  0.0000
              Bcc     0.0000     0.000     0.000     0.000  0.0000  0.0000  1.0000
 
              Baa     0.0000     0.000     0.000     0.000  1.0000  0.0000  0.0000
     7 H(1)   Bbb     0.0000     0.000     0.000     0.000 -0.0000  1.0000  0.0000
              Bcc     0.0000     0.000     0.000     0.000  0.0000  0.0000  1.0000
 
              Baa     0.0000    -0.000    -0.000    -0.000  1.0000  0.0000  0.0000
     8 O(17)  Bbb     0.0000    -0.000    -0.000    -0.000 -0.0000  1.0000  0.0000
              Bcc     0.0000    -0.000    -0.000    -0.000  0.0000  0.0000  1.0000
 
              Baa     0.0000     0.000     0.000     0.000  1.0000  0.0000  0.0000
     9 H(1)   Bbb     0.0000     0.000     0.000     0.000 -0.0000  1.0000  0.0000
              Bcc     0.0000     0.000     0.000     0.000  0.0000  0.0000  1.0000
 

 ---------------------------------------------------------------------------------

 1\1\GINC-NODE32\SP\UB3LYP\6-31+G(d)\C3H4O2\YANZ\12-Oct-2023\0\\# ub3ly
 p/6-31+g(d)\\tmpdir/M2_conf_0_44.gjf\\0,1\C,0,0.,0.,0.\C,0,1.5168,0.,0
 .\C,0,2.10048,0.,1.41191\O,0,-0.49274,-0.88214,0.71307\H,0,-0.59469,0.
 6217,-0.51578\H,0,1.86378,-1.00225,-0.31639\H,0,1.94457,0.8154,-0.5872
 2\O,0,1.6937,-0.85874,2.10886\H,0,2.87625,0.70343,1.69694\\Version=ES6
 4L-G16RevA.03\State=1-A\HF=-267.1228807\S2=0.\S2-1=0.\S2A=0.\RMSD=6.03
 9e-09\Dipole=0.8014539,1.2357193,-1.1260353\Quadrupole=-0.0529289,0.53
 98126,-0.4868838,-1.1169992,0.6587767,1.1432603\PG=C01 [X(C3H4O2)]\\@


 NOTHING MAKES A PERSON MORE PRODUCTIVE THAN THE LAST MINUTE.
 Job cpu time:       0 days  0 hours  0 minutes 55.5 seconds.
 Elapsed time:       0 days  0 hours  0 minutes 28.2 seconds.
 File lengths (MBytes):  RWF=     10 Int=      0 D2E=      0 Chk=      2 Scr=      1
 Normal termination of Gaussian 16 at Thu Oct 12 15:14:55 2023.
