 Entering Gaussian System, Link 0=g16
 Initial command:
 /share/apps/gaussian/g16/l1.exe "/tmp/58286.mgr/Gau-30780.inp" -scrdir="/tmp/58286.mgr/"
 Entering Link 1 = /share/apps/gaussian/g16/l1.exe PID=     30781.
  
 Copyright (c) 1988,1990,1992,1993,1995,1998,2003,2009,2016,
            Gaussian, Inc.  All Rights Reserved.
  
 This is part of the Gaussian(R) 16 program.  It is based on
 the Gaussian(R) 09 system (copyright 2009, Gaussian, Inc.),
 the Gaussian(R) 03 system (copyright 2003, Gaussian, Inc.),
 the Gaussian(R) 98 system (copyright 1998, Gaussian, Inc.),
 the Gaussian(R) 94 system (copyright 1995, Gaussian, Inc.),
 the Gaussian 92(TM) system (copyright 1992, Gaussian, Inc.),
 the Gaussian 90(TM) system (copyright 1990, Gaussian, Inc.),
 the Gaussian 88(TM) system (copyright 1988, Gaussian, Inc.),
 the Gaussian 86(TM) system (copyright 1986, Carnegie Mellon
 University), and the Gaussian 82(TM) system (copyright 1983,
 Carnegie Mellon University). Gaussian is a federally registered
 trademark of Gaussian, Inc.
  
 This software contains proprietary and confidential information,
 including trade secrets, belonging to Gaussian, Inc.
  
 This software is provided under written license and may be
 used, copied, transmitted, or stored only in accord with that
 written license.
  
 The following legend is applicable only to US Government
 contracts under FAR:
  
                    RESTRICTED RIGHTS LEGEND
  
 Use, reproduction and disclosure by the US Government is
 subject to restrictions as set forth in subparagraphs (a)
 and (c) of the Commercial Computer Software - Restricted
 Rights clause in FAR 52.227-19.
  
 Gaussian, Inc.
 340 Quinnipiac St., Bldg. 40, Wallingford CT 06492
  
  
 ---------------------------------------------------------------
 Warning -- This program may not be used in any manner that
 competes with the business of Gaussian, Inc. or will provide
 assistance to any competitor of Gaussian, Inc.  The licensee
 of this program is prohibited from giving any competitor of
 Gaussian, Inc. access to this program.  By using this program,
 the user acknowledges that Gaussian, Inc. is engaged in the
 business of creating and licensing software in the field of
 computational chemistry and represents and warrants to the
 licensee that it is not a competitor of Gaussian, Inc. and that
 it will not use this program in any manner prohibited above.
 ---------------------------------------------------------------
  

 Cite this work as:
 Gaussian 16, Revision A.03,
 M. J. Frisch, G. W. Trucks, H. B. Schlegel, G. E. Scuseria, 
 M. A. Robb, J. R. Cheeseman, G. Scalmani, V. Barone, 
 G. A. Petersson, H. Nakatsuji, X. Li, M. Caricato, A. V. Marenich, 
 J. Bloino, B. G. Janesko, R. Gomperts, B. Mennucci, H. P. Hratchian, 
 J. V. Ortiz, A. F. Izmaylov, J. L. Sonnenberg, D. Williams-Young, 
 F. Ding, F. Lipparini, F. Egidi, J. Goings, B. Peng, A. Petrone, 
 T. Henderson, D. Ranasinghe, V. G. Zakrzewski, J. Gao, N. Rega, 
 G. Zheng, W. Liang, M. Hada, M. Ehara, K. Toyota, R. Fukuda, 
 J. Hasegawa, M. Ishida, T. Nakajima, Y. Honda, O. Kitao, H. Nakai, 
 T. Vreven, K. Throssell, J. A. Montgomery, Jr., J. E. Peralta, 
 F. Ogliaro, M. J. Bearpark, J. J. Heyd, E. N. Brothers, K. N. Kudin, 
 V. N. Staroverov, T. A. Keith, R. Kobayashi, J. Normand, 
 K. Raghavachari, A. P. Rendell, J. C. Burant, S. S. Iyengar, 
 J. Tomasi, M. Cossi, J. M. Millam, M. Klene, C. Adamo, R. Cammi, 
 J. W. Ochterski, R. L. Martin, K. Morokuma, O. Farkas, 
 J. B. Foresman, and D. J. Fox, Gaussian, Inc., Wallingford CT, 2016.
 
 ******************************************
 Gaussian 16:  ES64L-G16RevA.03 25-Dec-2016
                12-Oct-2023 
 ******************************************
 %nprocshared=2
 Will use up to    2 processors via shared memory.
 %mem=2GB
 ------------------
 # ub3lyp/6-31+g(d)
 ------------------
 1/38=1,172=1/1;
 2/12=2,17=6,18=5,40=1/2;
 3/5=1,6=6,7=11,11=2,25=1,30=1,74=-5,116=2/1,2,3;
 4//1;
 5/5=2,38=5/2;
 6/7=2,8=2,9=2,10=2,28=1/1;
 99/5=1,9=1/99;
 -----------------------
 tmpdir/M2_conf_0_23.gjf
 -----------------------
 Symbolic Z-matrix:
 Charge =  0 Multiplicity = 1
 C                     0.        0.        0. 
 C                     1.3857    0.        0. 
 C                     2.07654   0.        1.21412 
 O                    -0.62134   0.00019   1.06928 
 H                    -0.65096   0.01188  -0.88415 
 H                     1.9322    0.00148  -0.93974 
 H                     1.57205   0.00698   2.08583 
 H                     3.16252  -0.00576   1.2164 
 
                          Input orientation:                          
 ---------------------------------------------------------------------
 Center     Atomic      Atomic             Coordinates (Angstroms)
 Number     Number       Type             X           Y           Z
 ---------------------------------------------------------------------
      1          6           0        0.000000    0.000000    0.000000
      2          6           0        1.385700    0.000000    0.000000
      3          6           0        2.076540    0.000000    1.214120
      4          8           0       -0.621340    0.000190    1.069280
      5          1           0       -0.650960    0.011880   -0.884150
      6          1           0        1.932200    0.001480   -0.939740
      7          1           0        1.572050    0.006980    2.085830
      8          1           0        3.162520   -0.005760    1.216400
 ---------------------------------------------------------------------
                    Distance matrix (angstroms):
                    1          2          3          4          5
     1  C    0.000000
     2  C    1.385700   0.000000
     3  C    2.405433   1.396906   0.000000
     4  O    1.236698   2.274108   2.701765   0.000000
     5  H    1.098003   2.220326   3.441240   1.953690   0.000000
     6  H    2.148607   1.087095   2.158692   3.249112   2.583779
     7  H    2.611911   2.094149   1.007193   2.417515   3.709795
     8  H    3.388391   2.153312   1.085998   3.786724   4.353763
                    6          7          8
     6  H    0.000000
     7  H    3.046935   0.000000
     8  H    2.482474   1.812641   0.000000
 Stoichiometry    C3H4O
 Framework group  C1[X(C3H4O)]
 Deg. of freedom    18
 Full point group                 C1      NOp   1
 Largest Abelian subgroup         C1      NOp   1
 Largest concise Abelian subgroup C1      NOp   1
                         Standard orientation:                         
 ---------------------------------------------------------------------
 Center     Atomic      Atomic             Coordinates (Angstroms)
 Number     Number       Type             X           Y           Z
 ---------------------------------------------------------------------
      1          6           0       -0.790299    0.487421   -0.001321
      2          6           0        0.585726    0.650881   -0.000558
      3          6           0        1.414962   -0.473269    0.000630
      4          8           0       -1.281167   -0.647688   -0.000762
      5          1           0       -1.541017    1.288616    0.009613
      6          1           0        1.017556    1.648526    0.000598
      7          1           0        1.016819   -1.398400    0.007912
      8          1           0        2.493633   -0.347432   -0.004531
 ---------------------------------------------------------------------
 Rotational constants (GHZ):          21.3387844           6.9601862           5.2483377
 Standard basis: 6-31+G(d) (6D, 7F)
 There are    84 symmetry adapted cartesian basis functions of A   symmetry.
 There are    84 symmetry adapted basis functions of A   symmetry.
    84 basis functions,   144 primitive gaussians,    84 cartesian basis functions
    15 alpha electrons       15 beta electrons
       nuclear repulsion energy       106.2345803372 Hartrees.
 NAtoms=    8 NActive=    8 NUniq=    8 SFac= 1.00D+00 NAtFMM=   60 NAOKFM=F Big=F
 Integral buffers will be    131072 words long.
 Raffenetti 2 integral format.
 Two-electron integral symmetry is turned on.
 One-electron integrals computed using PRISM.
 NBasis=    84 RedAO= T EigKep=  1.27D-04  NBF=    84
 NBsUse=    84 1.00D-06 EigRej= -1.00D+00 NBFU=    84
 ExpMin= 4.38D-02 ExpMax= 5.48D+03 ExpMxC= 8.25D+02 IAcc=3 IRadAn=         5 AccDes= 0.00D+00
 Harris functional with IExCor=  402 and IRadAn=       5 diagonalized for initial guess.
 HarFok:  IExCor=  402 AccDes= 0.00D+00 IRadAn=         5 IDoV= 1 UseB2=F ITyADJ=14
 ICtDFT=  3500011 ScaDFX=  1.000000  1.000000  1.000000  1.000000
 FoFCou: FMM=F IPFlag=           0 FMFlag=      100000 FMFlg1=           0
         NFxFlg=           0 DoJE=T BraDBF=F KetDBF=T FulRan=T
         wScrn=  0.000000 ICntrl=       500 IOpCl=  0 I1Cent=   200000004 NGrid=           0
         NMat0=    1 NMatS0=      1 NMatT0=    0 NMatD0=    1 NMtDS0=    0 NMtDT0=    0
 Petite list used in FoFCou.
 Initial guess <Sx>= 0.0000 <Sy>= 0.0000 <Sz>= 0.0000 <S**2>=-0.0000 S=-0.0000
 Keep R1 and R2 ints in memory in canonical form, NReq=14566444.
 Requested convergence on RMS density matrix=1.00D-08 within 128 cycles.
 Requested convergence on MAX density matrix=1.00D-06.
 Requested convergence on             energy=1.00D-06.
 No special actions if energy rises.
 SCF Done:  E(UB3LYP) =  -191.902804275     A.U. after   12 cycles
            NFock= 12  Conv=0.15D-08     -V/T= 2.0087
 <Sx>= 0.0000 <Sy>= 0.0000 <Sz>= 0.0000 <S**2>=-0.0000 S=-0.0000
 <L.S>= 0.000000000000E+00
 Annihilation of the first spin contaminant:
 S**2 before annihilation    -0.0000,   after     0.0000

 **********************************************************************

            Population analysis using the SCF density.

 **********************************************************************

 Orbital symmetries:
 Alpha Orbitals:
       Occupied  (A) (A) (A) (A) (A) (A) (A) (A) (A) (A) (A) (A)
                 (A) (A) (A)
       Virtual   (A) (A) (A) (A) (A) (A) (A) (A) (A) (A) (A) (A)
                 (A) (A) (A) (A) (A) (A) (A) (A) (A) (A) (A) (A)
                 (A) (A) (A) (A) (A) (A) (A) (A) (A) (A) (A) (A)
                 (A) (A) (A) (A) (A) (A) (A) (A) (A) (A) (A) (A)
                 (A) (A) (A) (A) (A) (A) (A) (A) (A) (A) (A) (A)
                 (A) (A) (A) (A) (A) (A) (A) (A) (A)
 Beta  Orbitals:
       Occupied  (A) (A) (A) (A) (A) (A) (A) (A) (A) (A) (A) (A)
                 (A) (A) (A)
       Virtual   (A) (A) (A) (A) (A) (A) (A) (A) (A) (A) (A) (A)
                 (A) (A) (A) (A) (A) (A) (A) (A) (A) (A) (A) (A)
                 (A) (A) (A) (A) (A) (A) (A) (A) (A) (A) (A) (A)
                 (A) (A) (A) (A) (A) (A) (A) (A) (A) (A) (A) (A)
                 (A) (A) (A) (A) (A) (A) (A) (A) (A) (A) (A) (A)
                 (A) (A) (A) (A) (A) (A) (A) (A) (A)
 The electronic state is 1-A.
 Alpha  occ. eigenvalues --  -19.14938 -10.27697 -10.22938 -10.22036  -1.04186
 Alpha  occ. eigenvalues --   -0.80591  -0.68316  -0.56037  -0.53119  -0.45811
 Alpha  occ. eigenvalues --   -0.43194  -0.40567  -0.39987  -0.28723  -0.26436
 Alpha virt. eigenvalues --   -0.09849   0.00589   0.02264   0.03817   0.04160
 Alpha virt. eigenvalues --    0.06145   0.06205   0.07042   0.09316   0.09501
 Alpha virt. eigenvalues --    0.11634   0.12104   0.14104   0.16192   0.18722
 Alpha virt. eigenvalues --    0.21982   0.24879   0.25488   0.25928   0.27088
 Alpha virt. eigenvalues --    0.29320   0.32542   0.32902   0.41394   0.45795
 Alpha virt. eigenvalues --    0.63114   0.64809   0.67716   0.68156   0.71147
 Alpha virt. eigenvalues --    0.71282   0.76570   0.87818   0.91384   0.92419
 Alpha virt. eigenvalues --    0.95761   1.04806   1.07510   1.09812   1.16353
 Alpha virt. eigenvalues --    1.21881   1.26167   1.28007   1.32404   1.34493
 Alpha virt. eigenvalues --    1.40587   1.54391   1.58351   1.63995   1.78807
 Alpha virt. eigenvalues --    1.82678   1.84685   1.95686   1.96790   2.10540
 Alpha virt. eigenvalues --    2.21765   2.23822   2.31186   2.32401   2.53563
 Alpha virt. eigenvalues --    2.57008   2.61317   2.79318   2.97336   3.11867
 Alpha virt. eigenvalues --    4.11042   4.17816   4.26928   4.42401
  Beta  occ. eigenvalues --  -19.14938 -10.27697 -10.22938 -10.22036  -1.04186
  Beta  occ. eigenvalues --   -0.80591  -0.68316  -0.56037  -0.53119  -0.45811
  Beta  occ. eigenvalues --   -0.43194  -0.40567  -0.39987  -0.28723  -0.26436
  Beta virt. eigenvalues --   -0.09849   0.00589   0.02264   0.03817   0.04160
  Beta virt. eigenvalues --    0.06145   0.06205   0.07042   0.09316   0.09501
  Beta virt. eigenvalues --    0.11634   0.12104   0.14104   0.16192   0.18722
  Beta virt. eigenvalues --    0.21982   0.24879   0.25488   0.25928   0.27088
  Beta virt. eigenvalues --    0.29320   0.32542   0.32902   0.41394   0.45795
  Beta virt. eigenvalues --    0.63114   0.64809   0.67716   0.68156   0.71147
  Beta virt. eigenvalues --    0.71282   0.76570   0.87818   0.91384   0.92419
  Beta virt. eigenvalues --    0.95761   1.04806   1.07510   1.09812   1.16353
  Beta virt. eigenvalues --    1.21881   1.26167   1.28007   1.32404   1.34493
  Beta virt. eigenvalues --    1.40587   1.54391   1.58351   1.63995   1.78807
  Beta virt. eigenvalues --    1.82678   1.84685   1.95686   1.96790   2.10540
  Beta virt. eigenvalues --    2.21765   2.23822   2.31186   2.32401   2.53563
  Beta virt. eigenvalues --    2.57008   2.61317   2.79318   2.97336   3.11867
  Beta virt. eigenvalues --    4.11042   4.17816   4.26928   4.42401
          Condensed to atoms (all electrons):
               1          2          3          4          5          6
     1  C    5.059193  -0.093153   0.068984   0.489635   0.461467   0.018186
     2  C   -0.093153   5.814906   0.454911  -0.229320  -0.198235   0.265539
     3  C    0.068984   0.454911   5.101662   0.026085   0.023645  -0.001547
     4  O    0.489635  -0.229320   0.026085   8.200590  -0.075939   0.006162
     5  H    0.461467  -0.198235   0.023645  -0.075939   0.621210   0.001419
     6  H    0.018186   0.265539  -0.001547   0.006162   0.001419   0.519510
     7  H   -0.003031  -0.059240   0.406519   0.002652   0.000030   0.004127
     8  H    0.018713  -0.037393   0.355285   0.002067  -0.000047  -0.004114
               7          8
     1  C   -0.003031   0.018713
     2  C   -0.059240  -0.037393
     3  C    0.406519   0.355285
     4  O    0.002652   0.002067
     5  H    0.000030  -0.000047
     6  H    0.004127  -0.004114
     7  H    0.444309  -0.032527
     8  H   -0.032527   0.496861
          Atomic-Atomic Spin Densities.
               1          2          3          4          5          6
     1  C   -0.000000   0.000000  -0.000000  -0.000000  -0.000000  -0.000000
     2  C    0.000000  -0.000000  -0.000000   0.000000   0.000000   0.000000
     3  C   -0.000000  -0.000000   0.000000   0.000000   0.000000  -0.000000
     4  O   -0.000000   0.000000   0.000000   0.000000  -0.000000   0.000000
     5  H   -0.000000   0.000000   0.000000  -0.000000  -0.000000   0.000000
     6  H   -0.000000   0.000000  -0.000000   0.000000   0.000000  -0.000000
     7  H   -0.000000   0.000000   0.000000  -0.000000   0.000000  -0.000000
     8  H   -0.000000   0.000000   0.000000  -0.000000  -0.000000  -0.000000
               7          8
     1  C   -0.000000  -0.000000
     2  C    0.000000   0.000000
     3  C    0.000000   0.000000
     4  O   -0.000000  -0.000000
     5  H    0.000000  -0.000000
     6  H   -0.000000  -0.000000
     7  H   -0.000000  -0.000000
     8  H   -0.000000   0.000000
 Mulliken charges and spin densities:
               1          2
     1  C   -0.019993  -0.000000
     2  C    0.081984   0.000000
     3  C   -0.435544  -0.000000
     4  O   -0.421931  -0.000000
     5  H    0.166451  -0.000000
     6  H    0.190718  -0.000000
     7  H    0.237162  -0.000000
     8  H    0.201154   0.000000
 Sum of Mulliken charges =  -0.00000   0.00000
 Mulliken charges and spin densities with hydrogens summed into heavy atoms:
               1          2
     1  C    0.146458  -0.000000
     2  C    0.272702   0.000000
     3  C    0.002771  -0.000000
     4  O   -0.421931  -0.000000
 Electronic spatial extent (au):  <R**2>=            256.1488
 Charge=             -0.0000 electrons
 Dipole moment (field-independent basis, Debye):
    X=              2.3793    Y=              1.8469    Z=              0.0068  Tot=              3.0120
 Quadrupole moment (field-independent basis, Debye-Ang):
   XX=            -23.9748   YY=            -22.8093   ZZ=            -25.2406
   XY=             -3.5176   XZ=             -0.0117   YZ=             -0.0069
 Traceless Quadrupole moment (field-independent basis, Debye-Ang):
   XX=              0.0334   YY=              1.1989   ZZ=             -1.2324
   XY=             -3.5176   XZ=             -0.0117   YZ=             -0.0069
 Octapole moment (field-independent basis, Debye-Ang**2):
  XXX=              6.4053  YYY=             -0.8776  ZZZ=              0.0030  XYY=              1.1562
  XXY=              2.9772  XXZ=             -0.0130  XZZ=             -3.2451  YZZ=             -1.1160
  YYZ=              0.0343  XYZ=             -0.0096
 Hexadecapole moment (field-independent basis, Debye-Ang**3):
 XXXX=           -210.5039 YYYY=            -90.0610 ZZZZ=            -28.4763 XXXY=             -7.0464
 XXXZ=             -0.1101 YYYX=              0.8322 YYYZ=             -0.0161 ZZZX=             -0.0048
 ZZZY=             -0.0081 XXYY=            -51.5446 XXZZ=            -43.8242 YYZZ=            -21.1515
 XXYZ=              0.0213 YYXZ=             -0.0003 ZZXY=              0.1926
 N-N= 1.062345803372D+02 E-N=-6.597373134530D+02  KE= 1.902441470938D+02
                          Isotropic Fermi Contact Couplings
        Atom                 a.u.       MegaHertz       Gauss      10(-4) cm-1
     1  C(13)              0.00000       0.00000       0.00000       0.00000
     2  C(13)             -0.00000      -0.00000      -0.00000      -0.00000
     3  C(13)             -0.00000      -0.00000      -0.00000      -0.00000
     4  O(17)              0.00000      -0.00000      -0.00000      -0.00000
     5  H(1)              -0.00000      -0.00000      -0.00000      -0.00000
     6  H(1)              -0.00000      -0.00000      -0.00000      -0.00000
     7  H(1)               0.00000       0.00000       0.00000       0.00000
     8  H(1)               0.00000       0.00000       0.00000       0.00000
 --------------------------------------------------------
       Center         ----  Spin Dipole Couplings  ----
                      3XX-RR        3YY-RR        3ZZ-RR
 --------------------------------------------------------
     1   Atom        0.000000      0.000000      0.000000
     2   Atom        0.000000      0.000000      0.000000
     3   Atom        0.000000      0.000000      0.000000
     4   Atom        0.000000      0.000000      0.000000
     5   Atom        0.000000      0.000000      0.000000
     6   Atom        0.000000      0.000000      0.000000
     7   Atom        0.000000      0.000000      0.000000
     8   Atom        0.000000      0.000000      0.000000
 --------------------------------------------------------
                        XY            XZ            YZ
 --------------------------------------------------------
     1   Atom        0.000000      0.000000      0.000000
     2   Atom        0.000000      0.000000      0.000000
     3   Atom        0.000000      0.000000      0.000000
     4   Atom        0.000000      0.000000      0.000000
     5   Atom        0.000000      0.000000      0.000000
     6   Atom        0.000000      0.000000      0.000000
     7   Atom        0.000000      0.000000      0.000000
     8   Atom        0.000000      0.000000      0.000000
 --------------------------------------------------------


 ---------------------------------------------------------------------------------
              Anisotropic Spin Dipole Couplings in Principal Axis System
 ---------------------------------------------------------------------------------

       Atom             a.u.   MegaHertz   Gauss  10(-4) cm-1        Axes

              Baa     0.0000     0.000     0.000     0.000  1.0000  0.0000  0.0000
     1 C(13)  Bbb     0.0000     0.000     0.000     0.000 -0.0000  1.0000  0.0000
              Bcc     0.0000     0.000     0.000     0.000  0.0000  0.0000  1.0000
 
              Baa     0.0000     0.000     0.000     0.000  1.0000  0.0000  0.0000
     2 C(13)  Bbb     0.0000     0.000     0.000     0.000 -0.0000  1.0000  0.0000
              Bcc     0.0000     0.000     0.000     0.000  0.0000  0.0000  1.0000
 
              Baa     0.0000     0.000     0.000     0.000  1.0000  0.0000  0.0000
     3 C(13)  Bbb     0.0000     0.000     0.000     0.000 -0.0000  1.0000  0.0000
              Bcc     0.0000     0.000     0.000     0.000  0.0000  0.0000  1.0000
 
              Baa     0.0000    -0.000    -0.000    -0.000  1.0000  0.0000  0.0000
     4 O(17)  Bbb     0.0000    -0.000    -0.000    -0.000 -0.0000  1.0000  0.0000
              Bcc     0.0000    -0.000    -0.000    -0.000  0.0000  0.0000  1.0000
 
              Baa     0.0000     0.000     0.000     0.000  1.0000  0.0000  0.0000
     5 H(1)   Bbb     0.0000     0.000     0.000     0.000 -0.0000  1.0000  0.0000
              Bcc     0.0000     0.000     0.000     0.000  0.0000  0.0000  1.0000
 
              Baa     0.0000     0.000     0.000     0.000  1.0000  0.0000  0.0000
     6 H(1)   Bbb     0.0000     0.000     0.000     0.000 -0.0000  1.0000  0.0000
              Bcc     0.0000     0.000     0.000     0.000  0.0000  0.0000  1.0000
 
              Baa     0.0000     0.000     0.000     0.000  1.0000  0.0000  0.0000
     7 H(1)   Bbb     0.0000     0.000     0.000     0.000 -0.0000  1.0000  0.0000
              Bcc     0.0000     0.000     0.000     0.000  0.0000  0.0000  1.0000
 
              Baa     0.0000     0.000     0.000     0.000  1.0000  0.0000  0.0000
     8 H(1)   Bbb     0.0000     0.000     0.000     0.000 -0.0000  1.0000  0.0000
              Bcc     0.0000     0.000     0.000     0.000  0.0000  0.0000  1.0000
 

 ---------------------------------------------------------------------------------

 1\1\GINC-NODE32\SP\UB3LYP\6-31+G(d)\C3H4O1\YANZ\12-Oct-2023\0\\# ub3ly
 p/6-31+g(d)\\tmpdir/M2_conf_0_23.gjf\\0,1\C,0,0.,0.,0.\C,0,1.3857,0.,0
 .\C,0,2.07654,0.,1.21412\O,0,-0.62134,0.00019,1.06928\H,0,-0.65096,0.0
 1188,-0.88415\H,0,1.9322,0.00148,-0.93974\H,0,1.57205,0.00698,2.08583\
 H,0,3.16252,-0.00576,1.2164\\Version=ES64L-G16RevA.03\State=1-A\HF=-19
 1.9028043\S2=0.\S2-1=0.\S2A=0.\RMSD=1.530e-09\Dipole=1.0152556,0.00251
 73,-0.6111303\Quadrupole=-0.575803,-0.9162205,1.4920235,-0.0110626,2.4
 40989,0.0011335\PG=C01 [X(C3H4O1)]\\@


 At the touch of love, everyone becomves a poet.
                                -- Plato
 Job cpu time:       0 days  0 hours  0 minutes 37.3 seconds.
 Elapsed time:       0 days  0 hours  0 minutes 19.0 seconds.
 File lengths (MBytes):  RWF=     10 Int=      0 D2E=      0 Chk=      2 Scr=      1
 Normal termination of Gaussian 16 at Thu Oct 12 15:13:29 2023.
