 Entering Gaussian System, Link 0=g16
 Initial command:
 /share/apps/gaussian/g16/l1.exe "/tmp/58286.mgr/Gau-30916.inp" -scrdir="/tmp/58286.mgr/"
 Entering Link 1 = /share/apps/gaussian/g16/l1.exe PID=     30917.
  
 Copyright (c) 1988,1990,1992,1993,1995,1998,2003,2009,2016,
            Gaussian, Inc.  All Rights Reserved.
  
 This is part of the Gaussian(R) 16 program.  It is based on
 the Gaussian(R) 09 system (copyright 2009, Gaussian, Inc.),
 the Gaussian(R) 03 system (copyright 2003, Gaussian, Inc.),
 the Gaussian(R) 98 system (copyright 1998, Gaussian, Inc.),
 the Gaussian(R) 94 system (copyright 1995, Gaussian, Inc.),
 the Gaussian 92(TM) system (copyright 1992, Gaussian, Inc.),
 the Gaussian 90(TM) system (copyright 1990, Gaussian, Inc.),
 the Gaussian 88(TM) system (copyright 1988, Gaussian, Inc.),
 the Gaussian 86(TM) system (copyright 1986, Carnegie Mellon
 University), and the Gaussian 82(TM) system (copyright 1983,
 Carnegie Mellon University). Gaussian is a federally registered
 trademark of Gaussian, Inc.
  
 This software contains proprietary and confidential information,
 including trade secrets, belonging to Gaussian, Inc.
  
 This software is provided under written license and may be
 used, copied, transmitted, or stored only in accord with that
 written license.
  
 The following legend is applicable only to US Government
 contracts under FAR:
  
                    RESTRICTED RIGHTS LEGEND
  
 Use, reproduction and disclosure by the US Government is
 subject to restrictions as set forth in subparagraphs (a)
 and (c) of the Commercial Computer Software - Restricted
 Rights clause in FAR 52.227-19.
  
 Gaussian, Inc.
 340 Quinnipiac St., Bldg. 40, Wallingford CT 06492
  
  
 ---------------------------------------------------------------
 Warning -- This program may not be used in any manner that
 competes with the business of Gaussian, Inc. or will provide
 assistance to any competitor of Gaussian, Inc.  The licensee
 of this program is prohibited from giving any competitor of
 Gaussian, Inc. access to this program.  By using this program,
 the user acknowledges that Gaussian, Inc. is engaged in the
 business of creating and licensing software in the field of
 computational chemistry and represents and warrants to the
 licensee that it is not a competitor of Gaussian, Inc. and that
 it will not use this program in any manner prohibited above.
 ---------------------------------------------------------------
  

 Cite this work as:
 Gaussian 16, Revision A.03,
 M. J. Frisch, G. W. Trucks, H. B. Schlegel, G. E. Scuseria, 
 M. A. Robb, J. R. Cheeseman, G. Scalmani, V. Barone, 
 G. A. Petersson, H. Nakatsuji, X. Li, M. Caricato, A. V. Marenich, 
 J. Bloino, B. G. Janesko, R. Gomperts, B. Mennucci, H. P. Hratchian, 
 J. V. Ortiz, A. F. Izmaylov, J. L. Sonnenberg, D. Williams-Young, 
 F. Ding, F. Lipparini, F. Egidi, J. Goings, B. Peng, A. Petrone, 
 T. Henderson, D. Ranasinghe, V. G. Zakrzewski, J. Gao, N. Rega, 
 G. Zheng, W. Liang, M. Hada, M. Ehara, K. Toyota, R. Fukuda, 
 J. Hasegawa, M. Ishida, T. Nakajima, Y. Honda, O. Kitao, H. Nakai, 
 T. Vreven, K. Throssell, J. A. Montgomery, Jr., J. E. Peralta, 
 F. Ogliaro, M. J. Bearpark, J. J. Heyd, E. N. Brothers, K. N. Kudin, 
 V. N. Staroverov, T. A. Keith, R. Kobayashi, J. Normand, 
 K. Raghavachari, A. P. Rendell, J. C. Burant, S. S. Iyengar, 
 J. Tomasi, M. Cossi, J. M. Millam, M. Klene, C. Adamo, R. Cammi, 
 J. W. Ochterski, R. L. Martin, K. Morokuma, O. Farkas, 
 J. B. Foresman, and D. J. Fox, Gaussian, Inc., Wallingford CT, 2016.
 
 ******************************************
 Gaussian 16:  ES64L-G16RevA.03 25-Dec-2016
                12-Oct-2023 
 ******************************************
 %nprocshared=2
 Will use up to    2 processors via shared memory.
 %mem=2GB
 ------------------
 # ub3lyp/6-31+g(d)
 ------------------
 1/38=1,172=1/1;
 2/12=2,17=6,18=5,40=1/2;
 3/5=1,6=6,7=11,11=2,25=1,30=1,74=-5,116=2/1,2,3;
 4//1;
 5/5=2,38=5/2;
 6/7=2,8=2,9=2,10=2,28=1/1;
 99/5=1,9=1/99;
 -----------------------
 tmpdir/M2_conf_0_27.gjf
 -----------------------
 Symbolic Z-matrix:
 Charge =  0 Multiplicity = 1
 C                     0.        0.        0. 
 C                     1.3914    0.        0. 
 C                     2.09407   0.        1.20731 
 O                    -0.62055   0.00167   1.0628 
 H                    -0.5419   -0.00099  -0.94125 
 H                     1.93325  -0.00197  -0.94116 
 H                     1.58815   0.00701   2.07345 
 H                     3.18113  -0.00901   1.20922 
 
                          Input orientation:                          
 ---------------------------------------------------------------------
 Center     Atomic      Atomic             Coordinates (Angstroms)
 Number     Number       Type             X           Y           Z
 ---------------------------------------------------------------------
      1          6           0        0.000000    0.000000    0.000000
      2          6           0        1.391400    0.000000    0.000000
      3          6           0        2.094070    0.000000    1.207310
      4          8           0       -0.620550    0.001670    1.062800
      5          1           0       -0.541900   -0.000990   -0.941250
      6          1           0        1.933250   -0.001970   -0.941160
      7          1           0        1.588150    0.007010    2.073450
      8          1           0        3.181130   -0.009010    1.209220
 ---------------------------------------------------------------------
                    Distance matrix (angstroms):
                    1          2          3          4          5
     1  C    0.000000
     2  C    1.391400   0.000000
     3  C    2.417173   1.396905   0.000000
     4  O    1.230703   2.275410   2.718464   0.000000
     5  H    1.086098   2.150256   3.400684   2.005595   0.000000
     6  H    2.150172   1.085996   2.154481   3.246192   2.475150
     7  H    2.611793   2.082776   1.003097   2.428950   3.691286
     8  H    3.403216   2.159960   1.087099   3.804514   4.299481
                    6          7          8
     6  H    0.000000
     7  H    3.034312   0.000000
     8  H    2.486240   1.812384   0.000000
 Stoichiometry    C3H4O
 Framework group  C1[X(C3H4O)]
 Deg. of freedom    18
 Full point group                 C1      NOp   1
 Largest Abelian subgroup         C1      NOp   1
 Largest concise Abelian subgroup C1      NOp   1
                         Standard orientation:                         
 ---------------------------------------------------------------------
 Center     Atomic      Atomic             Coordinates (Angstroms)
 Number     Number       Type             X           Y           Z
 ---------------------------------------------------------------------
      1          6           0        0.798706    0.481520    0.000285
      2          6           0       -0.583162    0.644106   -0.001027
      3          6           0       -1.422094   -0.472825   -0.000232
      4          8           0        1.290816   -0.646512    0.000483
      5          1           0        1.446879    1.353001    0.000649
      6          1           0       -1.011325    1.642136   -0.000704
      7          1           0       -1.020844   -1.392157   -0.005719
      8          1           0       -2.501937   -0.347687    0.007756
 ---------------------------------------------------------------------
 Rotational constants (GHZ):          21.4023411           6.9121849           5.2247837
 Standard basis: 6-31+G(d) (6D, 7F)
 There are    84 symmetry adapted cartesian basis functions of A   symmetry.
 There are    84 symmetry adapted basis functions of A   symmetry.
    84 basis functions,   144 primitive gaussians,    84 cartesian basis functions
    15 alpha electrons       15 beta electrons
       nuclear repulsion energy       106.2227141767 Hartrees.
 NAtoms=    8 NActive=    8 NUniq=    8 SFac= 1.00D+00 NAtFMM=   60 NAOKFM=F Big=F
 Integral buffers will be    131072 words long.
 Raffenetti 2 integral format.
 Two-electron integral symmetry is turned on.
 One-electron integrals computed using PRISM.
 NBasis=    84 RedAO= T EigKep=  1.28D-04  NBF=    84
 NBsUse=    84 1.00D-06 EigRej= -1.00D+00 NBFU=    84
 ExpMin= 4.38D-02 ExpMax= 5.48D+03 ExpMxC= 8.25D+02 IAcc=3 IRadAn=         5 AccDes= 0.00D+00
 Harris functional with IExCor=  402 and IRadAn=       5 diagonalized for initial guess.
 HarFok:  IExCor=  402 AccDes= 0.00D+00 IRadAn=         5 IDoV= 1 UseB2=F ITyADJ=14
 ICtDFT=  3500011 ScaDFX=  1.000000  1.000000  1.000000  1.000000
 FoFCou: FMM=F IPFlag=           0 FMFlag=      100000 FMFlg1=           0
         NFxFlg=           0 DoJE=T BraDBF=F KetDBF=T FulRan=T
         wScrn=  0.000000 ICntrl=       500 IOpCl=  0 I1Cent=   200000004 NGrid=           0
         NMat0=    1 NMatS0=      1 NMatT0=    0 NMatD0=    1 NMtDS0=    0 NMtDT0=    0
 Petite list used in FoFCou.
 Initial guess <Sx>= 0.0000 <Sy>= 0.0000 <Sz>= 0.0000 <S**2>= 0.0000 S= 0.0000
 Keep R1 and R2 ints in memory in canonical form, NReq=14566444.
 Requested convergence on RMS density matrix=1.00D-08 within 128 cycles.
 Requested convergence on MAX density matrix=1.00D-06.
 Requested convergence on             energy=1.00D-06.
 No special actions if energy rises.
 SCF Done:  E(UB3LYP) =  -191.905123894     A.U. after   12 cycles
            NFock= 12  Conv=0.13D-08     -V/T= 2.0086
 <Sx>= 0.0000 <Sy>= 0.0000 <Sz>= 0.0000 <S**2>=-0.0000 S=-0.0000
 <L.S>= 0.000000000000E+00
 Annihilation of the first spin contaminant:
 S**2 before annihilation    -0.0000,   after    -0.0000

 **********************************************************************

            Population analysis using the SCF density.

 **********************************************************************

 Orbital symmetries:
 Alpha Orbitals:
       Occupied  (A) (A) (A) (A) (A) (A) (A) (A) (A) (A) (A) (A)
                 (A) (A) (A)
       Virtual   (A) (A) (A) (A) (A) (A) (A) (A) (A) (A) (A) (A)
                 (A) (A) (A) (A) (A) (A) (A) (A) (A) (A) (A) (A)
                 (A) (A) (A) (A) (A) (A) (A) (A) (A) (A) (A) (A)
                 (A) (A) (A) (A) (A) (A) (A) (A) (A) (A) (A) (A)
                 (A) (A) (A) (A) (A) (A) (A) (A) (A) (A) (A) (A)
                 (A) (A) (A) (A) (A) (A) (A) (A) (A)
 Beta  Orbitals:
       Occupied  (A) (A) (A) (A) (A) (A) (A) (A) (A) (A) (A) (A)
                 (A) (A) (A)
       Virtual   (A) (A) (A) (A) (A) (A) (A) (A) (A) (A) (A) (A)
                 (A) (A) (A) (A) (A) (A) (A) (A) (A) (A) (A) (A)
                 (A) (A) (A) (A) (A) (A) (A) (A) (A) (A) (A) (A)
                 (A) (A) (A) (A) (A) (A) (A) (A) (A) (A) (A) (A)
                 (A) (A) (A) (A) (A) (A) (A) (A) (A) (A) (A) (A)
                 (A) (A) (A) (A) (A) (A) (A) (A) (A)
 The electronic state is 1-A.
 Alpha  occ. eigenvalues --  -19.15258 -10.27708 -10.22792 -10.21787  -1.04568
 Alpha  occ. eigenvalues --   -0.80496  -0.68543  -0.56120  -0.52939  -0.45832
 Alpha  occ. eigenvalues --   -0.43174  -0.40728  -0.40189  -0.28730  -0.26758
 Alpha virt. eigenvalues --   -0.09781   0.00587   0.02238   0.03908   0.04181
 Alpha virt. eigenvalues --    0.06102   0.06220   0.07105   0.09413   0.09515
 Alpha virt. eigenvalues --    0.11699   0.12119   0.14042   0.16154   0.19246
 Alpha virt. eigenvalues --    0.22093   0.24687   0.25884   0.26149   0.27043
 Alpha virt. eigenvalues --    0.28860   0.32727   0.32947   0.41207   0.46269
 Alpha virt. eigenvalues --    0.63124   0.64818   0.67680   0.68181   0.70666
 Alpha virt. eigenvalues --    0.71429   0.76612   0.87552   0.90960   0.92479
 Alpha virt. eigenvalues --    0.95929   1.05219   1.07784   1.10509   1.16391
 Alpha virt. eigenvalues --    1.21800   1.26489   1.28677   1.32445   1.33717
 Alpha virt. eigenvalues --    1.40764   1.54269   1.59772   1.63974   1.78557
 Alpha virt. eigenvalues --    1.82542   1.86340   1.95554   1.96739   2.09209
 Alpha virt. eigenvalues --    2.21517   2.24258   2.31321   2.32634   2.53797
 Alpha virt. eigenvalues --    2.56568   2.61559   2.77882   2.99844   3.12855
 Alpha virt. eigenvalues --    4.11128   4.17917   4.27609   4.42845
  Beta  occ. eigenvalues --  -19.15258 -10.27708 -10.22792 -10.21787  -1.04568
  Beta  occ. eigenvalues --   -0.80496  -0.68543  -0.56120  -0.52939  -0.45832
  Beta  occ. eigenvalues --   -0.43174  -0.40728  -0.40189  -0.28730  -0.26758
  Beta virt. eigenvalues --   -0.09781   0.00587   0.02238   0.03908   0.04181
  Beta virt. eigenvalues --    0.06102   0.06220   0.07105   0.09413   0.09515
  Beta virt. eigenvalues --    0.11699   0.12119   0.14042   0.16154   0.19246
  Beta virt. eigenvalues --    0.22093   0.24687   0.25884   0.26149   0.27043
  Beta virt. eigenvalues --    0.28860   0.32727   0.32947   0.41207   0.46269
  Beta virt. eigenvalues --    0.63124   0.64818   0.67680   0.68181   0.70666
  Beta virt. eigenvalues --    0.71429   0.76612   0.87552   0.90960   0.92479
  Beta virt. eigenvalues --    0.95929   1.05219   1.07784   1.10509   1.16391
  Beta virt. eigenvalues --    1.21800   1.26489   1.28677   1.32445   1.33717
  Beta virt. eigenvalues --    1.40764   1.54269   1.59772   1.63974   1.78557
  Beta virt. eigenvalues --    1.82542   1.86340   1.95554   1.96739   2.09209
  Beta virt. eigenvalues --    2.21517   2.24258   2.31321   2.32634   2.53797
  Beta virt. eigenvalues --    2.56568   2.61559   2.77882   2.99844   3.12855
  Beta virt. eigenvalues --    4.11128   4.17917   4.27609   4.42845
          Condensed to atoms (all electrons):
               1          2          3          4          5          6
     1  C    5.007394  -0.039625   0.073402   0.480620   0.456085   0.013919
     2  C   -0.039625   5.787810   0.433788  -0.229189  -0.207942   0.265420
     3  C    0.073402   0.433788   5.109953   0.032590   0.027315   0.001749
     4  O    0.480620  -0.229189   0.032590   8.196627  -0.067105   0.006376
     5  H    0.456085  -0.207942   0.027315  -0.067105   0.626307   0.001639
     6  H    0.013919   0.265420   0.001749   0.006376   0.001639   0.522777
     7  H   -0.003387  -0.064058   0.410341   0.004028   0.000078   0.004299
     8  H    0.017142  -0.035722   0.356507   0.001780  -0.000067  -0.004165
               7          8
     1  C   -0.003387   0.017142
     2  C   -0.064058  -0.035722
     3  C    0.410341   0.356507
     4  O    0.004028   0.001780
     5  H    0.000078  -0.000067
     6  H    0.004299  -0.004165
     7  H    0.446931  -0.032619
     8  H   -0.032619   0.495801
          Atomic-Atomic Spin Densities.
               1          2          3          4          5          6
     1  C    0.000000  -0.000000  -0.000000   0.000000   0.000000  -0.000000
     2  C   -0.000000   0.000000   0.000000  -0.000000  -0.000000   0.000000
     3  C   -0.000000   0.000000  -0.000000  -0.000000  -0.000000  -0.000000
     4  O    0.000000  -0.000000  -0.000000  -0.000000  -0.000000  -0.000000
     5  H    0.000000  -0.000000  -0.000000  -0.000000  -0.000000  -0.000000
     6  H   -0.000000   0.000000  -0.000000  -0.000000  -0.000000   0.000000
     7  H    0.000000   0.000000  -0.000000  -0.000000   0.000000  -0.000000
     8  H    0.000000  -0.000000   0.000000  -0.000000  -0.000000   0.000000
               7          8
     1  C    0.000000   0.000000
     2  C    0.000000  -0.000000
     3  C   -0.000000   0.000000
     4  O   -0.000000  -0.000000
     5  H    0.000000  -0.000000
     6  H   -0.000000   0.000000
     7  H    0.000000   0.000000
     8  H    0.000000  -0.000000
 Mulliken charges and spin densities:
               1          2
     1  C   -0.005552   0.000000
     2  C    0.089518   0.000000
     3  C   -0.445645  -0.000000
     4  O   -0.425729  -0.000000
     5  H    0.163689  -0.000000
     6  H    0.187986   0.000000
     7  H    0.234388   0.000000
     8  H    0.201344   0.000000
 Sum of Mulliken charges =  -0.00000  -0.00000
 Mulliken charges and spin densities with hydrogens summed into heavy atoms:
               1          2
     1  C    0.158137   0.000000
     2  C    0.277504   0.000000
     3  C   -0.009913  -0.000000
     4  O   -0.425729  -0.000000
 Electronic spatial extent (au):  <R**2>=            256.7880
 Charge=             -0.0000 electrons
 Dipole moment (field-independent basis, Debye):
    X=             -2.3683    Y=              1.8480    Z=              0.0014  Tot=              3.0040
 Quadrupole moment (field-independent basis, Debye-Ang):
   XX=            -24.1754   YY=            -22.6884   ZZ=            -25.2140
   XY=              3.4907   XZ=             -0.0153   YZ=              0.0056
 Traceless Quadrupole moment (field-independent basis, Debye-Ang):
   XX=             -0.1495   YY=              1.3376   ZZ=             -1.1881
   XY=              3.4907   XZ=             -0.0153   YZ=              0.0056
 Octapole moment (field-independent basis, Debye-Ang**2):
  XXX=             -6.9599  YYY=             -0.6229  ZZZ=              0.0076  XYY=             -0.8649
  XXY=              2.7897  XXZ=              0.0453  XZZ=              3.3512  YZZ=             -1.0971
  YYZ=             -0.0138  XYZ=              0.0005
 Hexadecapole moment (field-independent basis, Debye-Ang**3):
 XXXX=           -212.2560 YYYY=            -89.6373 ZZZZ=            -28.4659 XXXY=              6.5302
 XXXZ=             -0.1456 YYYX=             -0.4883 YYYZ=              0.0143 ZZZX=             -0.0166
 ZZZY=              0.0042 XXYY=            -51.7393 XXZZ=            -43.8907 YYZZ=            -21.1075
 XXYZ=             -0.0024 YYXZ=              0.0079 ZZXY=             -0.1760
 N-N= 1.062227141767D+02 E-N=-6.597182130864D+02  KE= 1.902691733436D+02
                          Isotropic Fermi Contact Couplings
        Atom                 a.u.       MegaHertz       Gauss      10(-4) cm-1
     1  C(13)              0.00000       0.00000       0.00000       0.00000
     2  C(13)             -0.00000      -0.00000      -0.00000      -0.00000
     3  C(13)              0.00000       0.00000       0.00000       0.00000
     4  O(17)             -0.00000       0.00000       0.00000       0.00000
     5  H(1)              -0.00000      -0.00000      -0.00000      -0.00000
     6  H(1)              -0.00000      -0.00000      -0.00000      -0.00000
     7  H(1)               0.00000       0.00000       0.00000       0.00000
     8  H(1)              -0.00000      -0.00000      -0.00000      -0.00000
 --------------------------------------------------------
       Center         ----  Spin Dipole Couplings  ----
                      3XX-RR        3YY-RR        3ZZ-RR
 --------------------------------------------------------
     1   Atom        0.000000      0.000000      0.000000
     2   Atom        0.000000      0.000000      0.000000
     3   Atom        0.000000      0.000000      0.000000
     4   Atom        0.000000      0.000000      0.000000
     5   Atom        0.000000      0.000000      0.000000
     6   Atom        0.000000      0.000000      0.000000
     7   Atom        0.000000      0.000000      0.000000
     8   Atom        0.000000      0.000000      0.000000
 --------------------------------------------------------
                        XY            XZ            YZ
 --------------------------------------------------------
     1   Atom        0.000000      0.000000      0.000000
     2   Atom        0.000000      0.000000      0.000000
     3   Atom        0.000000      0.000000      0.000000
     4   Atom        0.000000      0.000000      0.000000
     5   Atom        0.000000      0.000000      0.000000
     6   Atom        0.000000      0.000000      0.000000
     7   Atom        0.000000      0.000000      0.000000
     8   Atom        0.000000      0.000000      0.000000
 --------------------------------------------------------


 ---------------------------------------------------------------------------------
              Anisotropic Spin Dipole Couplings in Principal Axis System
 ---------------------------------------------------------------------------------

       Atom             a.u.   MegaHertz   Gauss  10(-4) cm-1        Axes

              Baa     0.0000     0.000     0.000     0.000  1.0000  0.0000  0.0000
     1 C(13)  Bbb     0.0000     0.000     0.000     0.000 -0.0000  1.0000  0.0000
              Bcc     0.0000     0.000     0.000     0.000  0.0000  0.0000  1.0000
 
              Baa     0.0000     0.000     0.000     0.000  1.0000  0.0000  0.0000
     2 C(13)  Bbb     0.0000     0.000     0.000     0.000 -0.0000  1.0000  0.0000
              Bcc     0.0000     0.000     0.000     0.000  0.0000  0.0000  1.0000
 
              Baa     0.0000     0.000     0.000     0.000  1.0000  0.0000  0.0000
     3 C(13)  Bbb     0.0000     0.000     0.000     0.000 -0.0000  1.0000  0.0000
              Bcc     0.0000     0.000     0.000     0.000  0.0000  0.0000  1.0000
 
              Baa     0.0000    -0.000    -0.000    -0.000  1.0000  0.0000  0.0000
     4 O(17)  Bbb     0.0000    -0.000    -0.000    -0.000 -0.0000  1.0000  0.0000
              Bcc     0.0000    -0.000    -0.000    -0.000  0.0000  0.0000  1.0000
 
              Baa     0.0000     0.000     0.000     0.000  1.0000  0.0000  0.0000
     5 H(1)   Bbb     0.0000     0.000     0.000     0.000 -0.0000  1.0000  0.0000
              Bcc     0.0000     0.000     0.000     0.000  0.0000  0.0000  1.0000
 
              Baa     0.0000     0.000     0.000     0.000  1.0000  0.0000  0.0000
     6 H(1)   Bbb     0.0000     0.000     0.000     0.000 -0.0000  1.0000  0.0000
              Bcc     0.0000     0.000     0.000     0.000  0.0000  0.0000  1.0000
 
              Baa     0.0000     0.000     0.000     0.000  1.0000  0.0000  0.0000
     7 H(1)   Bbb     0.0000     0.000     0.000     0.000 -0.0000  1.0000  0.0000
              Bcc     0.0000     0.000     0.000     0.000  0.0000  0.0000  1.0000
 
              Baa     0.0000     0.000     0.000     0.000  1.0000  0.0000  0.0000
     8 H(1)   Bbb     0.0000     0.000     0.000     0.000 -0.0000  1.0000  0.0000
              Bcc     0.0000     0.000     0.000     0.000  0.0000  0.0000  1.0000
 

 ---------------------------------------------------------------------------------

 1\1\GINC-NODE32\SP\UB3LYP\6-31+G(d)\C3H4O1\YANZ\12-Oct-2023\0\\# ub3ly
 p/6-31+g(d)\\tmpdir/M2_conf_0_27.gjf\\0,1\C,0,0.,0.,0.\C,0,1.3914,0.,0
 .\C,0,2.09407,0.,1.20731\O,0,-0.62055,0.00167,1.0628\H,0,-0.5419,-0.00
 099,-0.94125\H,0,1.93325,-0.00197,-0.94116\H,0,1.58815,0.00701,2.07345
 \H,0,3.18113,-0.00901,1.20922\\Version=ES64L-G16RevA.03\State=1-A\HF=-
 191.9051239\S2=0.\S2-1=0.\S2A=0.\RMSD=1.342e-09\Dipole=1.010328,-0.002
 2251,-0.6132146\Quadrupole=-0.698426,-0.8832798,1.5817058,-0.0090474,2
 .3960588,0.0035323\PG=C01 [X(C3H4O1)]\\@


 We find comfort among those who agree with us -- growth among those who don't.
 -- Frank A. Clark
 Job cpu time:       0 days  0 hours  0 minutes 37.3 seconds.
 Elapsed time:       0 days  0 hours  0 minutes 19.0 seconds.
 File lengths (MBytes):  RWF=     10 Int=      0 D2E=      0 Chk=      2 Scr=      1
 Normal termination of Gaussian 16 at Thu Oct 12 15:13:44 2023.
