 Entering Gaussian System, Link 0=g16
 Initial command:
 /share/apps/gaussian/g16/l1.exe "/tmp/58286.mgr/Gau-31085.inp" -scrdir="/tmp/58286.mgr/"
 Entering Link 1 = /share/apps/gaussian/g16/l1.exe PID=     31086.
  
 Copyright (c) 1988,1990,1992,1993,1995,1998,2003,2009,2016,
            Gaussian, Inc.  All Rights Reserved.
  
 This is part of the Gaussian(R) 16 program.  It is based on
 the Gaussian(R) 09 system (copyright 2009, Gaussian, Inc.),
 the Gaussian(R) 03 system (copyright 2003, Gaussian, Inc.),
 the Gaussian(R) 98 system (copyright 1998, Gaussian, Inc.),
 the Gaussian(R) 94 system (copyright 1995, Gaussian, Inc.),
 the Gaussian 92(TM) system (copyright 1992, Gaussian, Inc.),
 the Gaussian 90(TM) system (copyright 1990, Gaussian, Inc.),
 the Gaussian 88(TM) system (copyright 1988, Gaussian, Inc.),
 the Gaussian 86(TM) system (copyright 1986, Carnegie Mellon
 University), and the Gaussian 82(TM) system (copyright 1983,
 Carnegie Mellon University). Gaussian is a federally registered
 trademark of Gaussian, Inc.
  
 This software contains proprietary and confidential information,
 including trade secrets, belonging to Gaussian, Inc.
  
 This software is provided under written license and may be
 used, copied, transmitted, or stored only in accord with that
 written license.
  
 The following legend is applicable only to US Government
 contracts under FAR:
  
                    RESTRICTED RIGHTS LEGEND
  
 Use, reproduction and disclosure by the US Government is
 subject to restrictions as set forth in subparagraphs (a)
 and (c) of the Commercial Computer Software - Restricted
 Rights clause in FAR 52.227-19.
  
 Gaussian, Inc.
 340 Quinnipiac St., Bldg. 40, Wallingford CT 06492
  
  
 ---------------------------------------------------------------
 Warning -- This program may not be used in any manner that
 competes with the business of Gaussian, Inc. or will provide
 assistance to any competitor of Gaussian, Inc.  The licensee
 of this program is prohibited from giving any competitor of
 Gaussian, Inc. access to this program.  By using this program,
 the user acknowledges that Gaussian, Inc. is engaged in the
 business of creating and licensing software in the field of
 computational chemistry and represents and warrants to the
 licensee that it is not a competitor of Gaussian, Inc. and that
 it will not use this program in any manner prohibited above.
 ---------------------------------------------------------------
  

 Cite this work as:
 Gaussian 16, Revision A.03,
 M. J. Frisch, G. W. Trucks, H. B. Schlegel, G. E. Scuseria, 
 M. A. Robb, J. R. Cheeseman, G. Scalmani, V. Barone, 
 G. A. Petersson, H. Nakatsuji, X. Li, M. Caricato, A. V. Marenich, 
 J. Bloino, B. G. Janesko, R. Gomperts, B. Mennucci, H. P. Hratchian, 
 J. V. Ortiz, A. F. Izmaylov, J. L. Sonnenberg, D. Williams-Young, 
 F. Ding, F. Lipparini, F. Egidi, J. Goings, B. Peng, A. Petrone, 
 T. Henderson, D. Ranasinghe, V. G. Zakrzewski, J. Gao, N. Rega, 
 G. Zheng, W. Liang, M. Hada, M. Ehara, K. Toyota, R. Fukuda, 
 J. Hasegawa, M. Ishida, T. Nakajima, Y. Honda, O. Kitao, H. Nakai, 
 T. Vreven, K. Throssell, J. A. Montgomery, Jr., J. E. Peralta, 
 F. Ogliaro, M. J. Bearpark, J. J. Heyd, E. N. Brothers, K. N. Kudin, 
 V. N. Staroverov, T. A. Keith, R. Kobayashi, J. Normand, 
 K. Raghavachari, A. P. Rendell, J. C. Burant, S. S. Iyengar, 
 J. Tomasi, M. Cossi, J. M. Millam, M. Klene, C. Adamo, R. Cammi, 
 J. W. Ochterski, R. L. Martin, K. Morokuma, O. Farkas, 
 J. B. Foresman, and D. J. Fox, Gaussian, Inc., Wallingford CT, 2016.
 
 ******************************************
 Gaussian 16:  ES64L-G16RevA.03 25-Dec-2016
                12-Oct-2023 
 ******************************************
 %nprocshared=2
 Will use up to    2 processors via shared memory.
 %mem=2GB
 ------------------
 # ub3lyp/6-31+g(d)
 ------------------
 1/38=1,172=1/1;
 2/12=2,17=6,18=5,40=1/2;
 3/5=1,6=6,7=11,11=2,25=1,30=1,74=-5,116=2/1,2,3;
 4//1;
 5/5=2,38=5/2;
 6/7=2,8=2,9=2,10=2,28=1/1;
 99/5=1,9=1/99;
 -----------------------
 tmpdir/M2_conf_0_28.gjf
 -----------------------
 Symbolic Z-matrix:
 Charge =  0 Multiplicity = 1
 C                     0.        0.        0. 
 C                     1.3914    0.        0. 
 H                     1.93424   0.        0.9406 
 O                    -0.62055   0.00037  -1.0628 
 H                    -0.5419   -0.00099   0.94125 
 O                     2.01273   0.00223  -1.06327 
 
                          Input orientation:                          
 ---------------------------------------------------------------------
 Center     Atomic      Atomic             Coordinates (Angstroms)
 Number     Number       Type             X           Y           Z
 ---------------------------------------------------------------------
      1          6           0        0.000000    0.000000    0.000000
      2          6           0        1.391400    0.000000    0.000000
      3          1           0        1.934240    0.000000    0.940600
      4          8           0       -0.620550    0.000370   -1.062800
      5          1           0       -0.541900   -0.000990    0.941250
      6          8           0        2.012730    0.002230   -1.063270
 ---------------------------------------------------------------------
                    Distance matrix (angstroms):
                    1          2          3          4          5
     1  C    0.000000
     2  C    1.391400   0.000000
     3  H    2.150817   1.086004   0.000000
     4  O    1.230702   2.275409   3.246623   0.000000
     5  H    1.086098   2.150256   2.476140   2.005593   0.000000
     6  O    2.276319   1.231503   2.005408   2.633281   3.247190
                    6
     6  O    0.000000
 Stoichiometry    C2H2O2
 Framework group  C1[X(C2H2O2)]
 Deg. of freedom    12
 Full point group                 C1      NOp   1
 Largest Abelian subgroup         C1      NOp   1
 Largest concise Abelian subgroup C1      NOp   1
                         Standard orientation:                         
 ---------------------------------------------------------------------
 Center     Atomic      Atomic             Coordinates (Angstroms)
 Number     Number       Type             X           Y           Z
 ---------------------------------------------------------------------
      1          6           0        0.696103    0.503998    0.000274
      2          6           0       -0.695297    0.504450   -0.000517
      3          1           0       -1.237832    1.445225    0.000179
      4          8           0        1.316308   -0.559002   -0.000138
      5          1           0        1.238308    1.445073    0.000597
      6          8           0       -1.316972   -0.558621    0.000224
 ---------------------------------------------------------------------
 Rotational constants (GHZ):          25.0688084           7.2031021           5.5953678
 Standard basis: 6-31+G(d) (6D, 7F)
 There are    80 symmetry adapted cartesian basis functions of A   symmetry.
 There are    80 symmetry adapted basis functions of A   symmetry.
    80 basis functions,   136 primitive gaussians,    80 cartesian basis functions
    15 alpha electrons       15 beta electrons
       nuclear repulsion energy       105.9820720847 Hartrees.
 NAtoms=    6 NActive=    6 NUniq=    6 SFac= 1.00D+00 NAtFMM=   60 NAOKFM=F Big=F
 Integral buffers will be    131072 words long.
 Raffenetti 2 integral format.
 Two-electron integral symmetry is turned on.
 One-electron integrals computed using PRISM.
 NBasis=    80 RedAO= T EigKep=  1.28D-04  NBF=    80
 NBsUse=    80 1.00D-06 EigRej= -1.00D+00 NBFU=    80
 ExpMin= 4.38D-02 ExpMax= 5.48D+03 ExpMxC= 8.25D+02 IAcc=3 IRadAn=         5 AccDes= 0.00D+00
 Harris functional with IExCor=  402 and IRadAn=       5 diagonalized for initial guess.
 HarFok:  IExCor=  402 AccDes= 0.00D+00 IRadAn=         5 IDoV= 1 UseB2=F ITyADJ=14
 ICtDFT=  3500011 ScaDFX=  1.000000  1.000000  1.000000  1.000000
 FoFCou: FMM=F IPFlag=           0 FMFlag=      100000 FMFlg1=           0
         NFxFlg=           0 DoJE=T BraDBF=F KetDBF=T FulRan=T
         wScrn=  0.000000 ICntrl=       500 IOpCl=  0 I1Cent=   200000004 NGrid=           0
         NMat0=    1 NMatS0=      1 NMatT0=    0 NMatD0=    1 NMtDS0=    0 NMtDT0=    0
 Petite list used in FoFCou.
 Initial guess <Sx>= 0.0000 <Sy>= 0.0000 <Sz>= 0.0000 <S**2>= 0.0000 S= 0.0000
 Keep R1 and R2 ints in memory in canonical form, NReq=12310292.
 Requested convergence on RMS density matrix=1.00D-08 within 128 cycles.
 Requested convergence on MAX density matrix=1.00D-06.
 Requested convergence on             energy=1.00D-06.
 No special actions if energy rises.
 SCF Done:  E(UB3LYP) =  -227.810864199     A.U. after   11 cycles
            NFock= 11  Conv=0.96D-09     -V/T= 2.0082
 <Sx>= 0.0000 <Sy>= 0.0000 <Sz>= 0.0000 <S**2>=-0.0000 S=-0.0000
 <L.S>= 0.000000000000E+00
 Annihilation of the first spin contaminant:
 S**2 before annihilation     0.0000,   after     0.0000

 **********************************************************************

            Population analysis using the SCF density.

 **********************************************************************

 Orbital symmetries:
 Alpha Orbitals:
       Occupied  (A) (A) (A) (A) (A) (A) (A) (A) (A) (A) (A) (A)
                 (A) (A) (A)
       Virtual   (A) (A) (A) (A) (A) (A) (A) (A) (A) (A) (A) (A)
                 (A) (A) (A) (A) (A) (A) (A) (A) (A) (A) (A) (A)
                 (A) (A) (A) (A) (A) (A) (A) (A) (A) (A) (A) (A)
                 (A) (A) (A) (A) (A) (A) (A) (A) (A) (A) (A) (A)
                 (A) (A) (A) (A) (A) (A) (A) (A) (A) (A) (A) (A)
                 (A) (A) (A) (A) (A)
 Beta  Orbitals:
       Occupied  (A) (A) (A) (A) (A) (A) (A) (A) (A) (A) (A) (A)
                 (A) (A) (A)
       Virtual   (A) (A) (A) (A) (A) (A) (A) (A) (A) (A) (A) (A)
                 (A) (A) (A) (A) (A) (A) (A) (A) (A) (A) (A) (A)
                 (A) (A) (A) (A) (A) (A) (A) (A) (A) (A) (A) (A)
                 (A) (A) (A) (A) (A) (A) (A) (A) (A) (A) (A) (A)
                 (A) (A) (A) (A) (A) (A) (A) (A) (A) (A) (A) (A)
                 (A) (A) (A) (A) (A)
 The electronic state is 1-A.
 Alpha  occ. eigenvalues --  -19.20381 -19.20379 -10.31032 -10.30977  -1.10349
 Alpha  occ. eigenvalues --   -1.06513  -0.76882  -0.58832  -0.56789  -0.48552
 Alpha  occ. eigenvalues --   -0.46579  -0.45818  -0.39050  -0.31901  -0.29484
 Alpha virt. eigenvalues --   -0.14995  -0.00192   0.01607   0.02849   0.03106
 Alpha virt. eigenvalues --    0.04638   0.07474   0.07509   0.09498   0.14746
 Alpha virt. eigenvalues --    0.16852   0.19222   0.20439   0.21397   0.23849
 Alpha virt. eigenvalues --    0.24054   0.26432   0.27117   0.29383   0.32496
 Alpha virt. eigenvalues --    0.35443   0.40453   0.52452   0.60563   0.60618
 Alpha virt. eigenvalues --    0.65478   0.74927   0.77360   0.81822   0.88336
 Alpha virt. eigenvalues --    0.99382   1.10803   1.13056   1.13741   1.15152
 Alpha virt. eigenvalues --    1.21058   1.21254   1.27182   1.29519   1.31836
 Alpha virt. eigenvalues --    1.40301   1.46756   1.54274   1.64552   1.66418
 Alpha virt. eigenvalues --    1.71462   1.76871   1.84150   1.87436   2.01052
 Alpha virt. eigenvalues --    2.06659   2.08922   2.24954   2.39448   2.39954
 Alpha virt. eigenvalues --    2.49586   2.64868   2.68045   2.89940   3.03037
 Alpha virt. eigenvalues --    3.18688   3.98781   4.19328   4.26426   4.43574
  Beta  occ. eigenvalues --  -19.20381 -19.20379 -10.31032 -10.30977  -1.10349
  Beta  occ. eigenvalues --   -1.06513  -0.76882  -0.58832  -0.56789  -0.48552
  Beta  occ. eigenvalues --   -0.46579  -0.45818  -0.39050  -0.31901  -0.29484
  Beta virt. eigenvalues --   -0.14995  -0.00192   0.01607   0.02849   0.03106
  Beta virt. eigenvalues --    0.04638   0.07474   0.07509   0.09498   0.14746
  Beta virt. eigenvalues --    0.16852   0.19222   0.20439   0.21397   0.23849
  Beta virt. eigenvalues --    0.24054   0.26432   0.27117   0.29383   0.32496
  Beta virt. eigenvalues --    0.35443   0.40453   0.52452   0.60563   0.60618
  Beta virt. eigenvalues --    0.65478   0.74927   0.77360   0.81822   0.88336
  Beta virt. eigenvalues --    0.99382   1.10803   1.13056   1.13741   1.15152
  Beta virt. eigenvalues --    1.21058   1.21254   1.27182   1.29519   1.31836
  Beta virt. eigenvalues --    1.40301   1.46756   1.54274   1.64552   1.66418
  Beta virt. eigenvalues --    1.71462   1.76871   1.84150   1.87436   2.01052
  Beta virt. eigenvalues --    2.06659   2.08922   2.24954   2.39448   2.39954
  Beta virt. eigenvalues --    2.49586   2.64868   2.68045   2.89940   3.03037
  Beta virt. eigenvalues --    3.18688   3.98781   4.19328   4.26426   4.43574
          Condensed to atoms (all electrons):
               1          2          3          4          5          6
     1  C    5.459709  -0.215169  -0.122684   0.529434   0.392545  -0.174336
     2  C   -0.215169   5.460646   0.392395  -0.174458  -0.122918   0.529378
     3  H   -0.122684   0.392395   0.594609   0.004802   0.010266  -0.060658
     4  O    0.529434  -0.174458   0.004802   8.012434  -0.060643  -0.000154
     5  H    0.392545  -0.122918   0.010266  -0.060643   0.594812   0.004799
     6  O   -0.174336   0.529378  -0.060658  -0.000154   0.004799   8.012592
          Atomic-Atomic Spin Densities.
               1          2          3          4          5          6
     1  C   -0.000000   0.000000   0.000000  -0.000000  -0.000000   0.000000
     2  C    0.000000   0.000000  -0.000000   0.000000   0.000000  -0.000000
     3  H    0.000000  -0.000000   0.000000  -0.000000  -0.000000   0.000000
     4  O   -0.000000   0.000000  -0.000000  -0.000000   0.000000  -0.000000
     5  H   -0.000000   0.000000  -0.000000   0.000000   0.000000  -0.000000
     6  O    0.000000  -0.000000   0.000000  -0.000000  -0.000000   0.000000
 Mulliken charges and spin densities:
               1          2
     1  C    0.130501  -0.000000
     2  C    0.130125   0.000000
     3  H    0.181270   0.000000
     4  O   -0.311415   0.000000
     5  H    0.181138   0.000000
     6  O   -0.311620  -0.000000
 Sum of Mulliken charges =   0.00000  -0.00000
 Mulliken charges and spin densities with hydrogens summed into heavy atoms:
               1          2
     1  C    0.311639  -0.000000
     2  C    0.311395   0.000000
     4  O   -0.311415   0.000000
     6  O   -0.311620  -0.000000
 Electronic spatial extent (au):  <R**2>=            226.3281
 Charge=             -0.0000 electrons
 Dipole moment (field-independent basis, Debye):
    X=              0.0034    Y=              3.8655    Z=             -0.0001  Tot=              3.8655
 Quadrupole moment (field-independent basis, Debye-Ang):
   XX=            -26.4534   YY=            -22.0210   ZZ=            -21.3829
   XY=             -0.0006   XZ=              0.0011   YZ=              0.0002
 Traceless Quadrupole moment (field-independent basis, Debye-Ang):
   XX=             -3.1677   YY=              1.2648   ZZ=              1.9029
   XY=             -0.0006   XZ=              0.0011   YZ=              0.0002
 Octapole moment (field-independent basis, Debye-Ang**2):
  XXX=              0.0120  YYY=              0.0771  ZZZ=              0.0002  XYY=             -0.0023
  XXY=              5.0053  XXZ=             -0.0005  XZZ=              0.0024  YZZ=             -1.0898
  YYZ=              0.0013  XYZ=             -0.0007
 Hexadecapole moment (field-independent basis, Debye-Ang**3):
 XXXX=           -194.9344 YYYY=            -75.1191 ZZZZ=            -19.2218 XXXY=             -0.0018
 XXXZ=             -0.0019 YYYX=             -0.0069 YYYZ=              0.0007 ZZZX=             -0.0023
 ZZZY=             -0.0006 XXYY=            -40.6411 XXZZ=            -32.5398 YYZZ=            -15.8786
 XXYZ=              0.0017 YYXZ=             -0.0010 ZZXY=             -0.0007
 N-N= 1.059820720847D+02 E-N=-7.458027812804D+02  KE= 2.259560498389D+02
                          Isotropic Fermi Contact Couplings
        Atom                 a.u.       MegaHertz       Gauss      10(-4) cm-1
     1  C(13)             -0.00000      -0.00000      -0.00000      -0.00000
     2  C(13)              0.00000       0.00000       0.00000       0.00000
     3  H(1)               0.00000       0.00000       0.00000       0.00000
     4  O(17)             -0.00000       0.00000       0.00000       0.00000
     5  H(1)              -0.00000      -0.00000      -0.00000      -0.00000
     6  O(17)             -0.00000       0.00000       0.00000       0.00000
 --------------------------------------------------------
       Center         ----  Spin Dipole Couplings  ----
                      3XX-RR        3YY-RR        3ZZ-RR
 --------------------------------------------------------
     1   Atom        0.000000      0.000000      0.000000
     2   Atom        0.000000      0.000000      0.000000
     3   Atom        0.000000      0.000000      0.000000
     4   Atom        0.000000      0.000000      0.000000
     5   Atom        0.000000      0.000000      0.000000
     6   Atom        0.000000      0.000000      0.000000
 --------------------------------------------------------
                        XY            XZ            YZ
 --------------------------------------------------------
     1   Atom        0.000000      0.000000      0.000000
     2   Atom        0.000000      0.000000      0.000000
     3   Atom        0.000000      0.000000      0.000000
     4   Atom        0.000000      0.000000      0.000000
     5   Atom        0.000000      0.000000      0.000000
     6   Atom        0.000000      0.000000      0.000000
 --------------------------------------------------------


 ---------------------------------------------------------------------------------
              Anisotropic Spin Dipole Couplings in Principal Axis System
 ---------------------------------------------------------------------------------

       Atom             a.u.   MegaHertz   Gauss  10(-4) cm-1        Axes

              Baa     0.0000     0.000     0.000     0.000  1.0000  0.0000  0.0000
     1 C(13)  Bbb     0.0000     0.000     0.000     0.000 -0.0000  1.0000  0.0000
              Bcc     0.0000     0.000     0.000     0.000  0.0000  0.0000  1.0000
 
              Baa     0.0000     0.000     0.000     0.000  1.0000  0.0000  0.0000
     2 C(13)  Bbb     0.0000     0.000     0.000     0.000 -0.0000  1.0000  0.0000
              Bcc     0.0000     0.000     0.000     0.000  0.0000  0.0000  1.0000
 
              Baa     0.0000     0.000     0.000     0.000  1.0000  0.0000  0.0000
     3 H(1)   Bbb     0.0000     0.000     0.000     0.000 -0.0000  1.0000  0.0000
              Bcc     0.0000     0.000     0.000     0.000  0.0000  0.0000  1.0000
 
              Baa     0.0000    -0.000    -0.000    -0.000  1.0000  0.0000  0.0000
     4 O(17)  Bbb     0.0000    -0.000    -0.000    -0.000 -0.0000  1.0000  0.0000
              Bcc     0.0000    -0.000    -0.000    -0.000  0.0000  0.0000  1.0000
 
              Baa     0.0000     0.000     0.000     0.000  1.0000  0.0000  0.0000
     5 H(1)   Bbb     0.0000     0.000     0.000     0.000 -0.0000  1.0000  0.0000
              Bcc     0.0000     0.000     0.000     0.000  0.0000  0.0000  1.0000
 
              Baa     0.0000    -0.000    -0.000    -0.000  1.0000  0.0000  0.0000
     6 O(17)  Bbb     0.0000    -0.000    -0.000    -0.000 -0.0000  1.0000  0.0000
              Bcc     0.0000    -0.000    -0.000    -0.000  0.0000  0.0000  1.0000
 

 ---------------------------------------------------------------------------------

 1\1\GINC-NODE32\SP\UB3LYP\6-31+G(d)\C2H2O2\YANZ\12-Oct-2023\0\\# ub3ly
 p/6-31+g(d)\\tmpdir/M2_conf_0_28.gjf\\0,1\C,0,0.,0.,0.\C,0,1.3914,0.,0
 .\H,0,1.93424,0.,0.9406\O,0,-0.62055,0.00037,-1.0628\H,0,-0.5419,-0.00
 099,0.94125\O,0,2.01273,0.00223,-1.06327\\Version=ES64L-G16RevA.03\Sta
 te=1-A\HF=-227.8108642\S2=0.\S2-1=0.\S2A=0.\RMSD=9.566e-10\Dipole=-0.0
 008447,-0.001682,1.5208224\Quadrupole=-2.3550916,1.4147444,0.9403473,-
 0.0029438,0.0015016,0.0006495\PG=C01 [X(C2H2O2)]\\@


 THERE IS NO SUBJECT, HOWEVER COMPLEX,
 WHICH, IF STUDIED WITH PATIENCE AND INTELLIGIENCE
 WILL NOT BECOME
 MORE COMPLEX
                        QUOTED BY D. GORDON ROHMAN
 Job cpu time:       0 days  0 hours  0 minutes 26.3 seconds.
 Elapsed time:       0 days  0 hours  0 minutes 13.4 seconds.
 File lengths (MBytes):  RWF=     10 Int=      0 D2E=      0 Chk=      2 Scr=      1
 Normal termination of Gaussian 16 at Thu Oct 12 15:13:58 2023.
