 Entering Gaussian System, Link 0=g16
 Initial command:
 /share/apps/gaussian/g16/l1.exe "/tmp/58286.mgr/Gau-30908.inp" -scrdir="/tmp/58286.mgr/"
 Entering Link 1 = /share/apps/gaussian/g16/l1.exe PID=     30909.
  
 Copyright (c) 1988,1990,1992,1993,1995,1998,2003,2009,2016,
            Gaussian, Inc.  All Rights Reserved.
  
 This is part of the Gaussian(R) 16 program.  It is based on
 the Gaussian(R) 09 system (copyright 2009, Gaussian, Inc.),
 the Gaussian(R) 03 system (copyright 2003, Gaussian, Inc.),
 the Gaussian(R) 98 system (copyright 1998, Gaussian, Inc.),
 the Gaussian(R) 94 system (copyright 1995, Gaussian, Inc.),
 the Gaussian 92(TM) system (copyright 1992, Gaussian, Inc.),
 the Gaussian 90(TM) system (copyright 1990, Gaussian, Inc.),
 the Gaussian 88(TM) system (copyright 1988, Gaussian, Inc.),
 the Gaussian 86(TM) system (copyright 1986, Carnegie Mellon
 University), and the Gaussian 82(TM) system (copyright 1983,
 Carnegie Mellon University). Gaussian is a federally registered
 trademark of Gaussian, Inc.
  
 This software contains proprietary and confidential information,
 including trade secrets, belonging to Gaussian, Inc.
  
 This software is provided under written license and may be
 used, copied, transmitted, or stored only in accord with that
 written license.
  
 The following legend is applicable only to US Government
 contracts under FAR:
  
                    RESTRICTED RIGHTS LEGEND
  
 Use, reproduction and disclosure by the US Government is
 subject to restrictions as set forth in subparagraphs (a)
 and (c) of the Commercial Computer Software - Restricted
 Rights clause in FAR 52.227-19.
  
 Gaussian, Inc.
 340 Quinnipiac St., Bldg. 40, Wallingford CT 06492
  
  
 ---------------------------------------------------------------
 Warning -- This program may not be used in any manner that
 competes with the business of Gaussian, Inc. or will provide
 assistance to any competitor of Gaussian, Inc.  The licensee
 of this program is prohibited from giving any competitor of
 Gaussian, Inc. access to this program.  By using this program,
 the user acknowledges that Gaussian, Inc. is engaged in the
 business of creating and licensing software in the field of
 computational chemistry and represents and warrants to the
 licensee that it is not a competitor of Gaussian, Inc. and that
 it will not use this program in any manner prohibited above.
 ---------------------------------------------------------------
  

 Cite this work as:
 Gaussian 16, Revision A.03,
 M. J. Frisch, G. W. Trucks, H. B. Schlegel, G. E. Scuseria, 
 M. A. Robb, J. R. Cheeseman, G. Scalmani, V. Barone, 
 G. A. Petersson, H. Nakatsuji, X. Li, M. Caricato, A. V. Marenich, 
 J. Bloino, B. G. Janesko, R. Gomperts, B. Mennucci, H. P. Hratchian, 
 J. V. Ortiz, A. F. Izmaylov, J. L. Sonnenberg, D. Williams-Young, 
 F. Ding, F. Lipparini, F. Egidi, J. Goings, B. Peng, A. Petrone, 
 T. Henderson, D. Ranasinghe, V. G. Zakrzewski, J. Gao, N. Rega, 
 G. Zheng, W. Liang, M. Hada, M. Ehara, K. Toyota, R. Fukuda, 
 J. Hasegawa, M. Ishida, T. Nakajima, Y. Honda, O. Kitao, H. Nakai, 
 T. Vreven, K. Throssell, J. A. Montgomery, Jr., J. E. Peralta, 
 F. Ogliaro, M. J. Bearpark, J. J. Heyd, E. N. Brothers, K. N. Kudin, 
 V. N. Staroverov, T. A. Keith, R. Kobayashi, J. Normand, 
 K. Raghavachari, A. P. Rendell, J. C. Burant, S. S. Iyengar, 
 J. Tomasi, M. Cossi, J. M. Millam, M. Klene, C. Adamo, R. Cammi, 
 J. W. Ochterski, R. L. Martin, K. Morokuma, O. Farkas, 
 J. B. Foresman, and D. J. Fox, Gaussian, Inc., Wallingford CT, 2016.
 
 ******************************************
 Gaussian 16:  ES64L-G16RevA.03 25-Dec-2016
                12-Oct-2023 
 ******************************************
 %nprocshared=2
 Will use up to    2 processors via shared memory.
 %mem=2GB
 ------------------
 # ub3lyp/6-31+g(d)
 ------------------
 1/38=1,172=1/1;
 2/12=2,17=6,18=5,40=1/2;
 3/5=1,6=6,7=11,11=2,25=1,30=1,74=-5,116=2/1,2,3;
 4//1;
 5/5=2,38=5/2;
 6/7=2,8=2,9=2,10=2,28=1/1;
 99/5=1,9=1/99;
 ----------------------
 tmpdir/M2_conf_0_5.gjf
 ----------------------
 Symbolic Z-matrix:
 Charge =  0 Multiplicity = 1
 C                     0.        0.        0. 
 C                     1.3914    0.        0. 
 H                     1.93363   0.        0.94106 
 O                    -0.62133  -0.00111  -1.06327 
 H                    -0.54185  -0.00099   0.94117 
 O                     2.01195   0.00056  -1.0628 
 
                          Input orientation:                          
 ---------------------------------------------------------------------
 Center     Atomic      Atomic             Coordinates (Angstroms)
 Number     Number       Type             X           Y           Z
 ---------------------------------------------------------------------
      1          6           0        0.000000    0.000000    0.000000
      2          6           0        1.391400    0.000000    0.000000
      3          1           0        1.933630    0.000000    0.941060
      4          8           0       -0.621330   -0.001110   -1.063270
      5          1           0       -0.541850   -0.000990    0.941170
      6          8           0        2.011950    0.000560   -1.062800
 ---------------------------------------------------------------------
                    Distance matrix (angstroms):
                    1          2          3          4          5
     1  C    0.000000
     2  C    1.391400   0.000000
     3  H    2.150469   1.086097   0.000000
     4  O    1.231501   2.276319   3.247331   0.000000
     5  H    1.086003   2.150176   2.475480   2.006015   0.000000
     6  O    2.275409   1.230702   2.005390   2.633281   3.246197
                    6
     6  O    0.000000
 Stoichiometry    C2H2O2
 Framework group  C1[X(C2H2O2)]
 Deg. of freedom    12
 Full point group                 C1      NOp   1
 Largest Abelian subgroup         C1      NOp   1
 Largest concise Abelian subgroup C1      NOp   1
                         Standard orientation:                         
 ---------------------------------------------------------------------
 Center     Atomic      Atomic             Coordinates (Angstroms)
 Number     Number       Type             X           Y           Z
 ---------------------------------------------------------------------
      1          6           0       -0.695321    0.504463   -0.000495
      2          6           0        0.696078    0.503958    0.000220
      3          1           0        1.238650    1.444821    0.000578
      4          8           0       -1.317038   -0.558581    0.000207
      5          1           0       -1.236830    1.445830    0.000296
      6          8           0        1.316243   -0.559067   -0.000110
 ---------------------------------------------------------------------
 Rotational constants (GHZ):          25.0674182           7.2032716           5.5954007
 Standard basis: 6-31+G(d) (6D, 7F)
 There are    80 symmetry adapted cartesian basis functions of A   symmetry.
 There are    80 symmetry adapted basis functions of A   symmetry.
    80 basis functions,   136 primitive gaussians,    80 cartesian basis functions
    15 alpha electrons       15 beta electrons
       nuclear repulsion energy       105.9821420550 Hartrees.
 NAtoms=    6 NActive=    6 NUniq=    6 SFac= 1.00D+00 NAtFMM=   60 NAOKFM=F Big=F
 Integral buffers will be    131072 words long.
 Raffenetti 2 integral format.
 Two-electron integral symmetry is turned on.
 One-electron integrals computed using PRISM.
 NBasis=    80 RedAO= T EigKep=  1.28D-04  NBF=    80
 NBsUse=    80 1.00D-06 EigRej= -1.00D+00 NBFU=    80
 ExpMin= 4.38D-02 ExpMax= 5.48D+03 ExpMxC= 8.25D+02 IAcc=3 IRadAn=         5 AccDes= 0.00D+00
 Harris functional with IExCor=  402 and IRadAn=       5 diagonalized for initial guess.
 HarFok:  IExCor=  402 AccDes= 0.00D+00 IRadAn=         5 IDoV= 1 UseB2=F ITyADJ=14
 ICtDFT=  3500011 ScaDFX=  1.000000  1.000000  1.000000  1.000000
 FoFCou: FMM=F IPFlag=           0 FMFlag=      100000 FMFlg1=           0
         NFxFlg=           0 DoJE=T BraDBF=F KetDBF=T FulRan=T
         wScrn=  0.000000 ICntrl=       500 IOpCl=  0 I1Cent=   200000004 NGrid=           0
         NMat0=    1 NMatS0=      1 NMatT0=    0 NMatD0=    1 NMtDS0=    0 NMtDT0=    0
 Petite list used in FoFCou.
 Initial guess <Sx>= 0.0000 <Sy>= 0.0000 <Sz>= 0.0000 <S**2>=-0.0000 S=-0.0000
 Keep R1 and R2 ints in memory in canonical form, NReq=12310292.
 Requested convergence on RMS density matrix=1.00D-08 within 128 cycles.
 Requested convergence on MAX density matrix=1.00D-06.
 Requested convergence on             energy=1.00D-06.
 No special actions if energy rises.
 SCF Done:  E(UB3LYP) =  -227.810867757     A.U. after   11 cycles
            NFock= 11  Conv=0.93D-09     -V/T= 2.0082
 <Sx>= 0.0000 <Sy>= 0.0000 <Sz>= 0.0000 <S**2>=-0.0000 S=-0.0000
 <L.S>= 0.000000000000E+00
 Annihilation of the first spin contaminant:
 S**2 before annihilation    -0.0000,   after     0.0000

 **********************************************************************

            Population analysis using the SCF density.

 **********************************************************************

 Orbital symmetries:
 Alpha Orbitals:
       Occupied  (A) (A) (A) (A) (A) (A) (A) (A) (A) (A) (A) (A)
                 (A) (A) (A)
       Virtual   (A) (A) (A) (A) (A) (A) (A) (A) (A) (A) (A) (A)
                 (A) (A) (A) (A) (A) (A) (A) (A) (A) (A) (A) (A)
                 (A) (A) (A) (A) (A) (A) (A) (A) (A) (A) (A) (A)
                 (A) (A) (A) (A) (A) (A) (A) (A) (A) (A) (A) (A)
                 (A) (A) (A) (A) (A) (A) (A) (A) (A) (A) (A) (A)
                 (A) (A) (A) (A) (A)
 Beta  Orbitals:
       Occupied  (A) (A) (A) (A) (A) (A) (A) (A) (A) (A) (A) (A)
                 (A) (A) (A)
       Virtual   (A) (A) (A) (A) (A) (A) (A) (A) (A) (A) (A) (A)
                 (A) (A) (A) (A) (A) (A) (A) (A) (A) (A) (A) (A)
                 (A) (A) (A) (A) (A) (A) (A) (A) (A) (A) (A) (A)
                 (A) (A) (A) (A) (A) (A) (A) (A) (A) (A) (A) (A)
                 (A) (A) (A) (A) (A) (A) (A) (A) (A) (A) (A) (A)
                 (A) (A) (A) (A) (A)
 The electronic state is 1-A.
 Alpha  occ. eigenvalues --  -19.20382 -19.20379 -10.31032 -10.30976  -1.10349
 Alpha  occ. eigenvalues --   -1.06513  -0.76885  -0.58831  -0.56788  -0.48552
 Alpha  occ. eigenvalues --   -0.46579  -0.45819  -0.39050  -0.31902  -0.29484
 Alpha virt. eigenvalues --   -0.14995  -0.00192   0.01607   0.02849   0.03105
 Alpha virt. eigenvalues --    0.04638   0.07474   0.07511   0.09498   0.14746
 Alpha virt. eigenvalues --    0.16851   0.19227   0.20439   0.21397   0.23850
 Alpha virt. eigenvalues --    0.24050   0.26432   0.27117   0.29382   0.32497
 Alpha virt. eigenvalues --    0.35443   0.40452   0.52451   0.60563   0.60617
 Alpha virt. eigenvalues --    0.65478   0.74922   0.77360   0.81819   0.88334
 Alpha virt. eigenvalues --    0.99382   1.10814   1.13059   1.13746   1.15151
 Alpha virt. eigenvalues --    1.21056   1.21254   1.27183   1.29520   1.31836
 Alpha virt. eigenvalues --    1.40301   1.46758   1.54274   1.64559   1.66414
 Alpha virt. eigenvalues --    1.71462   1.76875   1.84150   1.87435   2.01048
 Alpha virt. eigenvalues --    2.06656   2.08915   2.24955   2.39454   2.39953
 Alpha virt. eigenvalues --    2.49594   2.64867   2.68033   2.89942   3.03043
 Alpha virt. eigenvalues --    3.18694   3.98780   4.19329   4.26429   4.43582
  Beta  occ. eigenvalues --  -19.20382 -19.20379 -10.31032 -10.30976  -1.10349
  Beta  occ. eigenvalues --   -1.06513  -0.76885  -0.58831  -0.56788  -0.48552
  Beta  occ. eigenvalues --   -0.46579  -0.45819  -0.39050  -0.31902  -0.29484
  Beta virt. eigenvalues --   -0.14995  -0.00192   0.01607   0.02849   0.03105
  Beta virt. eigenvalues --    0.04638   0.07474   0.07511   0.09498   0.14746
  Beta virt. eigenvalues --    0.16851   0.19227   0.20439   0.21397   0.23850
  Beta virt. eigenvalues --    0.24050   0.26432   0.27117   0.29382   0.32497
  Beta virt. eigenvalues --    0.35443   0.40452   0.52451   0.60563   0.60617
  Beta virt. eigenvalues --    0.65478   0.74922   0.77360   0.81819   0.88334
  Beta virt. eigenvalues --    0.99382   1.10814   1.13059   1.13746   1.15151
  Beta virt. eigenvalues --    1.21056   1.21254   1.27183   1.29520   1.31836
  Beta virt. eigenvalues --    1.40301   1.46758   1.54274   1.64559   1.66414
  Beta virt. eigenvalues --    1.71462   1.76875   1.84150   1.87435   2.01048
  Beta virt. eigenvalues --    2.06656   2.08915   2.24955   2.39454   2.39953
  Beta virt. eigenvalues --    2.49594   2.64867   2.68033   2.89942   3.03043
  Beta virt. eigenvalues --    3.18694   3.98780   4.19329   4.26429   4.43582
          Condensed to atoms (all electrons):
               1          2          3          4          5          6
     1  C    5.460533  -0.214992  -0.122968   0.529342   0.392283  -0.174456
     2  C   -0.214992   5.459528   0.392620  -0.174341  -0.122697   0.529420
     3  H   -0.122968   0.392620   0.594775   0.004794   0.010279  -0.060651
     4  O    0.529342  -0.174341   0.004794   8.012625  -0.060595  -0.000152
     5  H    0.392283  -0.122697   0.010279  -0.060595   0.594686   0.004815
     6  O   -0.174456   0.529420  -0.060651  -0.000152   0.004815   8.012450
          Atomic-Atomic Spin Densities.
               1          2          3          4          5          6
     1  C    0.000000  -0.000000  -0.000000   0.000000   0.000000   0.000000
     2  C   -0.000000   0.000000   0.000000  -0.000000  -0.000000  -0.000000
     3  H   -0.000000   0.000000  -0.000000   0.000000   0.000000   0.000000
     4  O    0.000000  -0.000000   0.000000  -0.000000  -0.000000   0.000000
     5  H    0.000000  -0.000000   0.000000  -0.000000  -0.000000   0.000000
     6  O    0.000000  -0.000000   0.000000   0.000000   0.000000   0.000000
 Mulliken charges and spin densities:
               1          2
     1  C    0.130257   0.000000
     2  C    0.130462  -0.000000
     3  H    0.181150  -0.000000
     4  O   -0.311673  -0.000000
     5  H    0.181229  -0.000000
     6  O   -0.311425   0.000000
 Sum of Mulliken charges =  -0.00000  -0.00000
 Mulliken charges and spin densities with hydrogens summed into heavy atoms:
               1          2
     1  C    0.311486   0.000000
     2  C    0.311612  -0.000000
     4  O   -0.311673  -0.000000
     6  O   -0.311425   0.000000
 Electronic spatial extent (au):  <R**2>=            226.3266
 Charge=             -0.0000 electrons
 Dipole moment (field-independent basis, Debye):
    X=              0.0038    Y=              3.8655    Z=             -0.0002  Tot=              3.8655
 Quadrupole moment (field-independent basis, Debye-Ang):
   XX=            -26.4548   YY=            -22.0202   ZZ=            -21.3828
   XY=              0.0008   XZ=              0.0009   YZ=              0.0002
 Traceless Quadrupole moment (field-independent basis, Debye-Ang):
   XX=             -3.1689   YY=              1.2657   ZZ=              1.9032
   XY=              0.0008   XZ=              0.0009   YZ=              0.0002
 Octapole moment (field-independent basis, Debye-Ang**2):
  XXX=              0.0180  YYY=              0.0781  ZZZ=              0.0003  XYY=             -0.0033
  XXY=              5.0033  XXZ=             -0.0005  XZZ=              0.0020  YZZ=             -1.0899
  YYZ=              0.0014  XYZ=             -0.0007
 Hexadecapole moment (field-independent basis, Debye-Ang**3):
 XXXX=           -194.9344 YYYY=            -75.1201 ZZZZ=            -19.2215 XXXY=              0.0081
 XXXZ=             -0.0018 YYYX=             -0.0078 YYYZ=              0.0008 ZZZX=             -0.0021
 ZZZY=             -0.0007 XXYY=            -40.6429 XXZZ=            -32.5386 YYZZ=            -15.8792
 XXYZ=              0.0019 YYXZ=             -0.0011 ZZXY=             -0.0007
 N-N= 1.059821420550D+02 E-N=-7.458028640853D+02  KE= 2.259560487073D+02
                          Isotropic Fermi Contact Couplings
        Atom                 a.u.       MegaHertz       Gauss      10(-4) cm-1
     1  C(13)              0.00000       0.00000       0.00000       0.00000
     2  C(13)              0.00000       0.00000       0.00000       0.00000
     3  H(1)               0.00000       0.00000       0.00000       0.00000
     4  O(17)             -0.00000       0.00000       0.00000       0.00000
     5  H(1)              -0.00000      -0.00000      -0.00000      -0.00000
     6  O(17)             -0.00000       0.00000       0.00000       0.00000
 --------------------------------------------------------
       Center         ----  Spin Dipole Couplings  ----
                      3XX-RR        3YY-RR        3ZZ-RR
 --------------------------------------------------------
     1   Atom        0.000000      0.000000      0.000000
     2   Atom        0.000000      0.000000      0.000000
     3   Atom        0.000000      0.000000      0.000000
     4   Atom        0.000000      0.000000      0.000000
     5   Atom        0.000000      0.000000      0.000000
     6   Atom        0.000000      0.000000      0.000000
 --------------------------------------------------------
                        XY            XZ            YZ
 --------------------------------------------------------
     1   Atom        0.000000      0.000000      0.000000
     2   Atom        0.000000      0.000000      0.000000
     3   Atom        0.000000      0.000000      0.000000
     4   Atom        0.000000      0.000000      0.000000
     5   Atom        0.000000      0.000000      0.000000
     6   Atom        0.000000      0.000000      0.000000
 --------------------------------------------------------


 ---------------------------------------------------------------------------------
              Anisotropic Spin Dipole Couplings in Principal Axis System
 ---------------------------------------------------------------------------------

       Atom             a.u.   MegaHertz   Gauss  10(-4) cm-1        Axes

              Baa     0.0000     0.000     0.000     0.000  1.0000  0.0000  0.0000
     1 C(13)  Bbb     0.0000     0.000     0.000     0.000 -0.0000  1.0000  0.0000
              Bcc     0.0000     0.000     0.000     0.000  0.0000  0.0000  1.0000
 
              Baa     0.0000     0.000     0.000     0.000  1.0000  0.0000  0.0000
     2 C(13)  Bbb     0.0000     0.000     0.000     0.000 -0.0000  1.0000  0.0000
              Bcc     0.0000     0.000     0.000     0.000  0.0000  0.0000  1.0000
 
              Baa     0.0000     0.000     0.000     0.000  1.0000  0.0000  0.0000
     3 H(1)   Bbb     0.0000     0.000     0.000     0.000 -0.0000  1.0000  0.0000
              Bcc     0.0000     0.000     0.000     0.000  0.0000  0.0000  1.0000
 
              Baa     0.0000    -0.000    -0.000    -0.000  1.0000  0.0000  0.0000
     4 O(17)  Bbb     0.0000    -0.000    -0.000    -0.000 -0.0000  1.0000  0.0000
              Bcc     0.0000    -0.000    -0.000    -0.000  0.0000  0.0000  1.0000
 
              Baa     0.0000     0.000     0.000     0.000  1.0000  0.0000  0.0000
     5 H(1)   Bbb     0.0000     0.000     0.000     0.000 -0.0000  1.0000  0.0000
              Bcc     0.0000     0.000     0.000     0.000  0.0000  0.0000  1.0000
 
              Baa     0.0000    -0.000    -0.000    -0.000  1.0000  0.0000  0.0000
     6 O(17)  Bbb     0.0000    -0.000    -0.000    -0.000 -0.0000  1.0000  0.0000
              Bcc     0.0000    -0.000    -0.000    -0.000  0.0000  0.0000  1.0000
 

 ---------------------------------------------------------------------------------

 1\1\GINC-NODE32\SP\UB3LYP\6-31+G(d)\C2H2O2\YANZ\12-Oct-2023\0\\# ub3ly
 p/6-31+g(d)\\tmpdir/M2_conf_0_5.gjf\\0,1\C,0,0.,0.,0.\C,0,1.3914,0.,0.
 \H,0,1.93363,0.,0.94106\O,0,-0.62133,-0.00111,-1.06327\H,0,-0.54185,-0
 .00099,0.94117\O,0,2.01195,0.00056,-1.0628\\Version=ES64L-G16RevA.03\S
 tate=1-A\HF=-227.8108678\S2=0.\S2-1=0.\S2A=0.\RMSD=9.330e-10\Dipole=0.
 0009603,0.0001932,1.5208042\Quadrupole=-2.3559791,1.4149561,0.9410231,
 -0.0026014,-0.0006189,-0.0001996\PG=C01 [X(C2H2O2)]\\@


 A SCIENTIST IS SOMEONE WHOSE CURIOSITY SURVIVES
 EDUCATION'S ASSAULTS ON IT.
                          - SIR HERMANN BONDI
 Job cpu time:       0 days  0 hours  0 minutes 26.5 seconds.
 Elapsed time:       0 days  0 hours  0 minutes 13.6 seconds.
 File lengths (MBytes):  RWF=     10 Int=      0 D2E=      0 Chk=      2 Scr=      1
 Normal termination of Gaussian 16 at Thu Oct 12 15:13:39 2023.
