 Entering Gaussian System, Link 0=g16
 Initial command:
 /share/apps/gaussian/g16/l1.exe "/tmp/58286.mgr/Gau-31022.inp" -scrdir="/tmp/58286.mgr/"
 Entering Link 1 = /share/apps/gaussian/g16/l1.exe PID=     31023.
  
 Copyright (c) 1988,1990,1992,1993,1995,1998,2003,2009,2016,
            Gaussian, Inc.  All Rights Reserved.
  
 This is part of the Gaussian(R) 16 program.  It is based on
 the Gaussian(R) 09 system (copyright 2009, Gaussian, Inc.),
 the Gaussian(R) 03 system (copyright 2003, Gaussian, Inc.),
 the Gaussian(R) 98 system (copyright 1998, Gaussian, Inc.),
 the Gaussian(R) 94 system (copyright 1995, Gaussian, Inc.),
 the Gaussian 92(TM) system (copyright 1992, Gaussian, Inc.),
 the Gaussian 90(TM) system (copyright 1990, Gaussian, Inc.),
 the Gaussian 88(TM) system (copyright 1988, Gaussian, Inc.),
 the Gaussian 86(TM) system (copyright 1986, Carnegie Mellon
 University), and the Gaussian 82(TM) system (copyright 1983,
 Carnegie Mellon University). Gaussian is a federally registered
 trademark of Gaussian, Inc.
  
 This software contains proprietary and confidential information,
 including trade secrets, belonging to Gaussian, Inc.
  
 This software is provided under written license and may be
 used, copied, transmitted, or stored only in accord with that
 written license.
  
 The following legend is applicable only to US Government
 contracts under FAR:
  
                    RESTRICTED RIGHTS LEGEND
  
 Use, reproduction and disclosure by the US Government is
 subject to restrictions as set forth in subparagraphs (a)
 and (c) of the Commercial Computer Software - Restricted
 Rights clause in FAR 52.227-19.
  
 Gaussian, Inc.
 340 Quinnipiac St., Bldg. 40, Wallingford CT 06492
  
  
 ---------------------------------------------------------------
 Warning -- This program may not be used in any manner that
 competes with the business of Gaussian, Inc. or will provide
 assistance to any competitor of Gaussian, Inc.  The licensee
 of this program is prohibited from giving any competitor of
 Gaussian, Inc. access to this program.  By using this program,
 the user acknowledges that Gaussian, Inc. is engaged in the
 business of creating and licensing software in the field of
 computational chemistry and represents and warrants to the
 licensee that it is not a competitor of Gaussian, Inc. and that
 it will not use this program in any manner prohibited above.
 ---------------------------------------------------------------
  

 Cite this work as:
 Gaussian 16, Revision A.03,
 M. J. Frisch, G. W. Trucks, H. B. Schlegel, G. E. Scuseria, 
 M. A. Robb, J. R. Cheeseman, G. Scalmani, V. Barone, 
 G. A. Petersson, H. Nakatsuji, X. Li, M. Caricato, A. V. Marenich, 
 J. Bloino, B. G. Janesko, R. Gomperts, B. Mennucci, H. P. Hratchian, 
 J. V. Ortiz, A. F. Izmaylov, J. L. Sonnenberg, D. Williams-Young, 
 F. Ding, F. Lipparini, F. Egidi, J. Goings, B. Peng, A. Petrone, 
 T. Henderson, D. Ranasinghe, V. G. Zakrzewski, J. Gao, N. Rega, 
 G. Zheng, W. Liang, M. Hada, M. Ehara, K. Toyota, R. Fukuda, 
 J. Hasegawa, M. Ishida, T. Nakajima, Y. Honda, O. Kitao, H. Nakai, 
 T. Vreven, K. Throssell, J. A. Montgomery, Jr., J. E. Peralta, 
 F. Ogliaro, M. J. Bearpark, J. J. Heyd, E. N. Brothers, K. N. Kudin, 
 V. N. Staroverov, T. A. Keith, R. Kobayashi, J. Normand, 
 K. Raghavachari, A. P. Rendell, J. C. Burant, S. S. Iyengar, 
 J. Tomasi, M. Cossi, J. M. Millam, M. Klene, C. Adamo, R. Cammi, 
 J. W. Ochterski, R. L. Martin, K. Morokuma, O. Farkas, 
 J. B. Foresman, and D. J. Fox, Gaussian, Inc., Wallingford CT, 2016.
 
 ******************************************
 Gaussian 16:  ES64L-G16RevA.03 25-Dec-2016
                12-Oct-2023 
 ******************************************
 %nprocshared=2
 Will use up to    2 processors via shared memory.
 %mem=2GB
 ------------------
 # ub3lyp/6-31+g(d)
 ------------------
 1/38=1,172=1/1;
 2/12=2,17=6,18=5,40=1/2;
 3/5=1,6=6,7=11,11=2,25=1,30=1,74=-5,116=2/1,2,3;
 4//1;
 5/5=2,38=5/2;
 6/7=2,8=2,9=2,10=2,28=1/1;
 99/5=1,9=1/99;
 -----------------------
 tmpdir/M2_conf_0_33.gjf
 -----------------------
 Symbolic Z-matrix:
 Charge =  0 Multiplicity = 2
 C                     0.        0.        0. 
 C                     1.5248    0.        0. 
 C                     1.93798   0.        1.47191 
 H                    -0.59939   0.71575  -0.37101 
 O                    -0.48202  -0.9809    0.57872 
 H                     1.93787   0.86466  -0.52427 
 H                     1.86396  -0.96603  -0.40192 
 H                     1.70074  -0.94365   1.9357 
 H                     1.7603    0.92719   2.01755 
 
                          Input orientation:                          
 ---------------------------------------------------------------------
 Center     Atomic      Atomic             Coordinates (Angstroms)
 Number     Number       Type             X           Y           Z
 ---------------------------------------------------------------------
      1          6           0        0.000000    0.000000    0.000000
      2          6           0        1.524800    0.000000    0.000000
      3          6           0        1.937980    0.000000    1.471910
      4          1           0       -0.599390    0.715750   -0.371010
      5          8           0       -0.482020   -0.980900    0.578720
      6          1           0        1.937870    0.864660   -0.524270
      7          1           0        1.863960   -0.966030   -0.401920
      8          1           0        1.700740   -0.943650    1.935700
      9          1           0        1.760300    0.927190    2.017550
 ---------------------------------------------------------------------
                    Distance matrix (angstroms):
                    1          2          3          4          5
     1  C    0.000000
     2  C    1.524800   0.000000
     3  C    2.433575   1.528802   0.000000
     4  H    1.004597   2.272032   3.216660   0.000000
     5  O    1.236699   2.307468   2.759774   1.947918   0.000000
     6  H    2.185826   1.092302   2.175401   2.546243   3.237058
     7  H    2.137545   1.099901   2.109486   2.982856   2.542734
     8  H    2.744071   2.160640   1.077896   3.655833   2.570452
     9  H    2.833522   2.232857   1.090401   3.364233   3.277047
                    6          7          8          9
     6  H    0.000000
     7  H    1.836262   0.000000
     8  H    3.062298   2.343418   0.000000
     9  H    2.548782   3.073900   1.873577   0.000000
 Stoichiometry    C3H5O(2)
 Framework group  C1[X(C3H5O)]
 Deg. of freedom    21
 Full point group                 C1      NOp   1
 Largest Abelian subgroup         C1      NOp   1
 Largest concise Abelian subgroup C1      NOp   1
                         Standard orientation:                         
 ---------------------------------------------------------------------
 Center     Atomic      Atomic             Coordinates (Angstroms)
 Number     Number       Type             X           Y           Z
 ---------------------------------------------------------------------
      1          6           0        0.790715    0.446705   -0.281060
      2          6           0       -0.607381    0.678627    0.281573
      3          6           0       -1.425434   -0.546787   -0.126332
      4          1           0        1.261300    1.008910   -0.967857
      5          8           0        1.319977   -0.583525    0.152451
      6          1           0       -1.058861    1.597339   -0.099550
      7          1           0       -0.542387    0.638410    1.378816
      8          1           0       -1.096191   -1.422092    0.409671
      9          1           0       -1.671080   -0.625631   -1.185773
 ---------------------------------------------------------------------
 Rotational constants (GHZ):          16.7232031           6.4751629           5.3511437
 Standard basis: 6-31+G(d) (6D, 7F)
 There are    86 symmetry adapted cartesian basis functions of A   symmetry.
 There are    86 symmetry adapted basis functions of A   symmetry.
    86 basis functions,   148 primitive gaussians,    86 cartesian basis functions
    16 alpha electrons       15 beta electrons
       nuclear repulsion energy       111.9222896662 Hartrees.
 NAtoms=    9 NActive=    9 NUniq=    9 SFac= 1.00D+00 NAtFMM=   60 NAOKFM=F Big=F
 Integral buffers will be    131072 words long.
 Raffenetti 2 integral format.
 Two-electron integral symmetry is turned on.
 One-electron integrals computed using PRISM.
 NBasis=    86 RedAO= T EigKep=  2.12D-04  NBF=    86
 NBsUse=    86 1.00D-06 EigRej= -1.00D+00 NBFU=    86
 ExpMin= 4.38D-02 ExpMax= 5.48D+03 ExpMxC= 8.25D+02 IAcc=3 IRadAn=         5 AccDes= 0.00D+00
 Harris functional with IExCor=  402 and IRadAn=       5 diagonalized for initial guess.
 HarFok:  IExCor=  402 AccDes= 0.00D+00 IRadAn=         5 IDoV= 1 UseB2=F ITyADJ=14
 ICtDFT=  3500011 ScaDFX=  1.000000  1.000000  1.000000  1.000000
 FoFCou: FMM=F IPFlag=           0 FMFlag=      100000 FMFlg1=           0
         NFxFlg=           0 DoJE=T BraDBF=F KetDBF=T FulRan=T
         wScrn=  0.000000 ICntrl=       500 IOpCl=  0 I1Cent=   200000004 NGrid=           0
         NMat0=    1 NMatS0=      1 NMatT0=    0 NMatD0=    1 NMtDS0=    0 NMtDT0=    0
 Petite list used in FoFCou.
 Initial guess <Sx>= 0.0000 <Sy>= 0.0000 <Sz>= 0.5000 <S**2>= 0.7500 S= 0.5000
 Keep R1 and R2 ints in memory in canonical form, NReq=15817181.
 Requested convergence on RMS density matrix=1.00D-08 within 128 cycles.
 Requested convergence on MAX density matrix=1.00D-06.
 Requested convergence on             energy=1.00D-06.
 No special actions if energy rises.
 SCF Done:  E(UB3LYP) =  -192.460544329     A.U. after   16 cycles
            NFock= 16  Conv=0.57D-08     -V/T= 2.0090
 <Sx>= 0.0000 <Sy>= 0.0000 <Sz>= 0.5000 <S**2>= 0.7539 S= 0.5019
 <L.S>= 0.000000000000E+00
 Annihilation of the first spin contaminant:
 S**2 before annihilation     0.7539,   after     0.7500

 **********************************************************************

            Population analysis using the SCF density.

 **********************************************************************

 Orbital symmetries:
 Alpha Orbitals:
       Occupied  (A) (A) (A) (A) (A) (A) (A) (A) (A) (A) (A) (A)
                 (A) (A) (A) (A)
       Virtual   (A) (A) (A) (A) (A) (A) (A) (A) (A) (A) (A) (A)
                 (A) (A) (A) (A) (A) (A) (A) (A) (A) (A) (A) (A)
                 (A) (A) (A) (A) (A) (A) (A) (A) (A) (A) (A) (A)
                 (A) (A) (A) (A) (A) (A) (A) (A) (A) (A) (A) (A)
                 (A) (A) (A) (A) (A) (A) (A) (A) (A) (A) (A) (A)
                 (A) (A) (A) (A) (A) (A) (A) (A) (A) (A)
 Beta  Orbitals:
       Occupied  (A) (A) (A) (A) (A) (A) (A) (A) (A) (A) (A) (A)
                 (A) (A) (A)
       Virtual   (A) (A) (A) (A) (A) (A) (A) (A) (A) (A) (A) (A)
                 (A) (A) (A) (A) (A) (A) (A) (A) (A) (A) (A) (A)
                 (A) (A) (A) (A) (A) (A) (A) (A) (A) (A) (A) (A)
                 (A) (A) (A) (A) (A) (A) (A) (A) (A) (A) (A) (A)
                 (A) (A) (A) (A) (A) (A) (A) (A) (A) (A) (A) (A)
                 (A) (A) (A) (A) (A) (A) (A) (A) (A) (A) (A)
 The electronic state is 2-A.
 Alpha  occ. eigenvalues --  -19.16420 -10.28922 -10.21668 -10.21267  -1.05268
 Alpha  occ. eigenvalues --   -0.79301  -0.66579  -0.60058  -0.50201  -0.47309
 Alpha  occ. eigenvalues --   -0.43938  -0.42182  -0.38282  -0.36263  -0.27624
 Alpha  occ. eigenvalues --   -0.23284
 Alpha virt. eigenvalues --   -0.05689   0.01183   0.03072   0.03181   0.04354
 Alpha virt. eigenvalues --    0.07081   0.07506   0.08046   0.08545   0.08716
 Alpha virt. eigenvalues --    0.11892   0.13212   0.15350   0.19789   0.20648
 Alpha virt. eigenvalues --    0.21437   0.24103   0.24864   0.25742   0.26979
 Alpha virt. eigenvalues --    0.28485   0.29366   0.33840   0.34640   0.39827
 Alpha virt. eigenvalues --    0.61157   0.63859   0.65269   0.66215   0.66792
 Alpha virt. eigenvalues --    0.70581   0.71926   0.76351   0.84223   0.93974
 Alpha virt. eigenvalues --    0.96303   0.98727   1.02403   1.06458   1.09341
 Alpha virt. eigenvalues --    1.15517   1.20858   1.24056   1.26540   1.33435
 Alpha virt. eigenvalues --    1.38376   1.51167   1.57885   1.62132   1.72963
 Alpha virt. eigenvalues --    1.79003   1.84851   1.88258   1.93209   1.97173
 Alpha virt. eigenvalues --    2.08381   2.12773   2.22319   2.22524   2.34419
 Alpha virt. eigenvalues --    2.35392   2.49763   2.56401   2.70440   2.82646
 Alpha virt. eigenvalues --    2.99119   4.11707   4.15189   4.24920   4.46156
  Beta  occ. eigenvalues --  -19.16313 -10.28825 -10.21323 -10.20274  -1.05053
  Beta  occ. eigenvalues --   -0.78108  -0.64923  -0.58997  -0.49719  -0.46655
  Beta  occ. eigenvalues --   -0.43498  -0.41527  -0.37719  -0.35633  -0.27006
  Beta virt. eigenvalues --   -0.08533  -0.04838   0.01244   0.03179   0.03528
  Beta virt. eigenvalues --    0.04515   0.07166   0.07924   0.08082   0.08630
  Beta virt. eigenvalues --    0.09371   0.12110   0.13429   0.15633   0.20040
  Beta virt. eigenvalues --    0.21224   0.21804   0.24615   0.25460   0.26093
  Beta virt. eigenvalues --    0.27610   0.28888   0.29594   0.34165   0.34923
  Beta virt. eigenvalues --    0.39990   0.61685   0.64117   0.65534   0.66954
  Beta virt. eigenvalues --    0.69486   0.72243   0.74395   0.76830   0.85023
  Beta virt. eigenvalues --    0.94316   0.96694   0.99354   1.03765   1.06702
  Beta virt. eigenvalues --    1.09910   1.16153   1.21374   1.24431   1.27057
  Beta virt. eigenvalues --    1.34038   1.39505   1.51577   1.58842   1.63599
  Beta virt. eigenvalues --    1.74321   1.80448   1.86150   1.91153   1.94406
  Beta virt. eigenvalues --    1.98074   2.09957   2.16054   2.22802   2.23461
  Beta virt. eigenvalues --    2.35810   2.36694   2.50458   2.56697   2.71231
  Beta virt. eigenvalues --    2.82917   2.99270   4.13613   4.15491   4.26255
  Beta virt. eigenvalues --    4.46450
          Condensed to atoms (all electrons):
               1          2          3          4          5          6
     1  C    4.904015   0.155216  -0.023792   0.386078   0.440477  -0.036904
     2  C    0.155216   5.809729   0.148956  -0.113764  -0.149917   0.364432
     3  C   -0.023792   0.148956   5.568145   0.008342  -0.017769  -0.046004
     4  H    0.386078  -0.113764   0.008342   0.594551  -0.061449   0.003906
     5  O    0.440477  -0.149917  -0.017769  -0.061449   8.157099   0.009786
     6  H   -0.036904   0.364432  -0.046004   0.003906   0.009786   0.529514
     7  H   -0.025735   0.399703  -0.056482   0.002465  -0.010707  -0.024232
     8  H   -0.013023  -0.051250   0.393177  -0.000068   0.006416   0.004202
     9  H    0.015415  -0.048860   0.364657   0.000274  -0.002427  -0.003992
               7          8          9
     1  C   -0.025735  -0.013023   0.015415
     2  C    0.399703  -0.051250  -0.048860
     3  C   -0.056482   0.393177   0.364657
     4  H    0.002465  -0.000068   0.000274
     5  O   -0.010707   0.006416  -0.002427
     6  H   -0.024232   0.004202  -0.003992
     7  H    0.478932  -0.006288   0.003968
     8  H   -0.006288   0.476803  -0.028663
     9  H    0.003968  -0.028663   0.508926
          Atomic-Atomic Spin Densities.
               1          2          3          4          5          6
     1  C    0.053020   0.018585  -0.023402  -0.005718  -0.006415  -0.005883
     2  C    0.018585  -0.031102  -0.115706  -0.002318   0.001064   0.009496
     3  C   -0.023402  -0.115706   1.304083   0.004474  -0.012056  -0.011632
     4  H   -0.005718  -0.002318   0.004474   0.010186  -0.002464   0.000857
     5  O   -0.006415   0.001064  -0.012056  -0.002464   0.054499   0.000038
     6  H   -0.005883   0.009496  -0.011632   0.000857   0.000038   0.014249
     7  H   -0.005354   0.008981  -0.012321   0.000432   0.001244   0.002704
     8  H   -0.001519   0.001580  -0.014421   0.000099   0.000052   0.000046
     9  H   -0.001284  -0.000662  -0.012553   0.000136  -0.000332   0.001214
               7          8          9
     1  C   -0.005354  -0.001519  -0.001284
     2  C    0.008981   0.001580  -0.000662
     3  C   -0.012321  -0.014421  -0.012553
     4  H    0.000432   0.000099   0.000136
     5  O    0.001244   0.000052  -0.000332
     6  H    0.002704   0.000046   0.001214
     7  H    0.013072   0.001501   0.000190
     8  H    0.001501  -0.031631   0.002943
     9  H    0.000190   0.002943  -0.029566
 Mulliken charges and spin densities:
               1          2
     1  C    0.198253   0.022030
     2  C   -0.514246  -0.110083
     3  C   -0.339230   1.106466
     4  H    0.179666   0.005684
     5  O   -0.371509   0.035629
     6  H    0.199293   0.011088
     7  H    0.238376   0.010449
     8  H    0.218694  -0.041351
     9  H    0.190702  -0.039913
 Sum of Mulliken charges =  -0.00000   1.00000
 Mulliken charges and spin densities with hydrogens summed into heavy atoms:
               1          2
     1  C    0.377918   0.027714
     2  C   -0.076576  -0.088546
     3  C    0.070167   1.025202
     5  O   -0.371509   0.035629
 Electronic spatial extent (au):  <R**2>=            270.3169
 Charge=             -0.0000 electrons
 Dipole moment (field-independent basis, Debye):
    X=             -1.0121    Y=              2.0844    Z=             -0.9190  Tot=              2.4927
 Quadrupole moment (field-independent basis, Debye-Ang):
   XX=            -29.4078   YY=            -24.5743   ZZ=            -23.2495
   XY=              2.7022   XZ=             -0.5299   YZ=             -0.3859
 Traceless Quadrupole moment (field-independent basis, Debye-Ang):
   XX=             -3.6639   YY=              1.1696   ZZ=              2.4944
   XY=              2.7022   XZ=             -0.5299   YZ=             -0.3859
 Octapole moment (field-independent basis, Debye-Ang**2):
  XXX=              8.2532  YYY=             -0.2538  ZZZ=              0.0173  XYY=              1.1113
  XXY=              4.8699  XXZ=             -2.8803  XZZ=              1.6152  YZZ=              0.2433
  YYZ=             -0.4191  XYZ=             -0.4256
 Hexadecapole moment (field-independent basis, Debye-Ang**3):
 XXXX=           -245.6049 YYYY=            -94.9336 ZZZZ=            -47.6176 XXXY=              0.5981
 XXXZ=              2.4460 YYYX=             -1.5046 YYYZ=             -3.2733 ZZZX=              0.6158
 ZZZY=             -0.3496 XXYY=            -53.2192 XXZZ=            -42.8086 YYZZ=            -24.5922
 XXYZ=             -0.5998 YYXZ=             -0.3468 ZZXY=              0.6175
 N-N= 1.119222896662D+02 E-N=-6.721728168786D+02  KE= 1.907483499060D+02
                          Isotropic Fermi Contact Couplings
        Atom                 a.u.       MegaHertz       Gauss      10(-4) cm-1
     1  C(13)              0.04896      55.04420      19.64114      18.36077
     2  C(13)             -0.01472     -16.54947      -5.90526      -5.52031
     3  C(13)              0.19901     223.72437      79.83042      74.62642
     4  H(1)               0.00195       8.73075       3.11535       2.91226
     5  O(17)              0.01078      -6.53629      -2.33231      -2.18027
     6  H(1)               0.00607      27.11977       9.67701       9.04618
     7  H(1)               0.00521      23.28041       8.30703       7.76551
     8  H(1)              -0.00858     -38.35154     -13.68478     -12.79270
     9  H(1)              -0.00882     -39.42257     -14.06695     -13.14995
 --------------------------------------------------------
       Center         ----  Spin Dipole Couplings  ----
                      3XX-RR        3YY-RR        3ZZ-RR
 --------------------------------------------------------
     1   Atom        0.045063     -0.019544     -0.025519
     2   Atom        0.013486      0.001073     -0.014560
     3   Atom        0.688448     -0.438913     -0.249535
     4   Atom        0.003743     -0.000316     -0.003427
     5   Atom       -0.084266     -0.004785      0.089052
     6   Atom       -0.007083      0.016866     -0.009783
     7   Atom       -0.000916     -0.001923      0.002839
     8   Atom       -0.010697      0.024923     -0.014226
     9   Atom       -0.007977     -0.060620      0.068597
 --------------------------------------------------------
                        XY            XZ            YZ
 --------------------------------------------------------
     1   Atom       -0.031861     -0.049609      0.003928
     2   Atom        0.014373     -0.004234      0.003563
     3   Atom       -0.273256     -0.549666      0.126280
     4   Atom        0.004504     -0.004930     -0.004169
     5   Atom        0.012462      0.027993      0.117208
     6   Atom        0.007045     -0.000906     -0.001073
     7   Atom        0.007873      0.010028      0.011579
     8   Atom       -0.036244     -0.003237     -0.054614
     9   Atom       -0.008261      0.015319      0.011402
 --------------------------------------------------------


 ---------------------------------------------------------------------------------
              Anisotropic Spin Dipole Couplings in Principal Axis System
 ---------------------------------------------------------------------------------

       Atom             a.u.   MegaHertz   Gauss  10(-4) cm-1        Axes

              Baa    -0.0554    -7.436    -2.653    -2.481  0.5023  0.3601  0.7862
     1 C(13)  Bbb    -0.0244    -3.281    -1.171    -1.094  0.0800  0.8859 -0.4569
              Bcc     0.0799    10.717     3.824     3.575  0.8610 -0.2924 -0.4162
 
              Baa    -0.0177    -2.369    -0.845    -0.790  0.3007 -0.3959  0.8677
     2 C(13)  Bbb    -0.0054    -0.718    -0.256    -0.240 -0.4539  0.7407  0.4953
              Bcc     0.0230     3.087     1.101     1.030  0.8388  0.5427 -0.0431
 
              Baa    -0.5031   -67.515   -24.091   -22.520  0.3895 -0.1343  0.9112
     3 C(13)  Bbb    -0.5017   -67.317   -24.020   -22.454  0.2411  0.9697  0.0399
              Bcc     1.0048   134.832    48.111    44.975  0.8889 -0.2041 -0.4101
 
              Baa    -0.0067    -3.572    -1.275    -1.192  0.2413  0.4057  0.8816
     4 H(1)   Bbb    -0.0031    -1.642    -0.586    -0.548 -0.6282  0.7577 -0.1767
              Bcc     0.0098     5.214     1.861     1.739  0.7397  0.5111 -0.4377
 
              Baa    -0.0916     6.629     2.365     2.211  0.8093  0.4275 -0.4027
     5 O(17)  Bbb    -0.0803     5.812     2.074     1.939 -0.5756  0.7139 -0.3989
              Bcc     0.1719   -12.441    -4.439    -4.150  0.1170  0.5546  0.8238
 
              Baa    -0.0101    -5.413    -1.932    -1.806  0.4537 -0.0831  0.8873
     6 H(1)   Bbb    -0.0087    -4.639    -1.655    -1.548  0.8513 -0.2539 -0.4591
              Bcc     0.0188    10.053     3.587     3.353  0.2634  0.9637 -0.0445
 
              Baa    -0.0114    -6.071    -2.166    -2.025  0.0651  0.7508 -0.6573
     7 H(1)   Bbb    -0.0087    -4.619    -1.648    -1.541  0.8518 -0.3849 -0.3553
              Bcc     0.0200    10.690     3.814     3.566  0.5198  0.5368  0.6646
 
              Baa    -0.0643   -34.302   -12.240   -11.442  0.4411  0.5921  0.6744
     8 H(1)   Bbb    -0.0088    -4.691    -1.674    -1.565  0.8347  0.0053 -0.5507
              Bcc     0.0731    38.993    13.914    13.007 -0.3296  0.8059 -0.4919
 
              Baa    -0.0633   -33.785   -12.055   -11.269  0.1752  0.9789 -0.1050
     9 H(1)   Bbb    -0.0089    -4.766    -1.701    -1.590  0.9680 -0.1907 -0.1632
              Bcc     0.0723    38.551    13.756    12.859  0.1798  0.0730  0.9810
 

 ---------------------------------------------------------------------------------

 1\1\GINC-NODE32\SP\UB3LYP\6-31+G(d)\C3H5O1(2)\YANZ\12-Oct-2023\0\\# ub
 3lyp/6-31+g(d)\\tmpdir/M2_conf_0_33.gjf\\0,2\C,0,0.,0.,0.\C,0,1.5248,0
 .,0.\C,0,1.93798,0.,1.47191\H,0,-0.59939,0.71575,-0.37101\O,0,-0.48202
 ,-0.9809,0.57872\H,0,1.93787,0.86466,-0.52427\H,0,1.86396,-0.96603,-0.
 40192\H,0,1.70074,-0.94365,1.9357\H,0,1.7603,0.92719,2.01755\\Version=
 ES64L-G16RevA.03\State=2-A\HF=-192.4605443\S2=0.753856\S2-1=0.\S2A=0.7
 50011\RMSD=5.729e-09\Dipole=0.3564279,0.7886604,-0.4612765\Quadrupole=
 -2.3435057,0.8825322,1.4609735,-2.3876586,0.4146008,-0.0776732\PG=C01 
 [X(C3H5O1)]\\@


 A SLIP OF THE FOOT YOU MAY SOON RECOVER, BUT A SLIP OF THE TONGUE
 YOU MAY NEVER GET OVER. -- BEN FRANKLIN
 Job cpu time:       0 days  0 hours  0 minutes 58.7 seconds.
 Elapsed time:       0 days  0 hours  0 minutes 29.8 seconds.
 File lengths (MBytes):  RWF=     10 Int=      0 D2E=      0 Chk=      2 Scr=      1
 Normal termination of Gaussian 16 at Thu Oct 12 15:14:08 2023.
