 Entering Gaussian System, Link 0=g16
 Initial command:
 /share/apps/gaussian/g16/l1.exe "/tmp/58286.mgr/Gau-30806.inp" -scrdir="/tmp/58286.mgr/"
 Entering Link 1 = /share/apps/gaussian/g16/l1.exe PID=     30807.
  
 Copyright (c) 1988,1990,1992,1993,1995,1998,2003,2009,2016,
            Gaussian, Inc.  All Rights Reserved.
  
 This is part of the Gaussian(R) 16 program.  It is based on
 the Gaussian(R) 09 system (copyright 2009, Gaussian, Inc.),
 the Gaussian(R) 03 system (copyright 2003, Gaussian, Inc.),
 the Gaussian(R) 98 system (copyright 1998, Gaussian, Inc.),
 the Gaussian(R) 94 system (copyright 1995, Gaussian, Inc.),
 the Gaussian 92(TM) system (copyright 1992, Gaussian, Inc.),
 the Gaussian 90(TM) system (copyright 1990, Gaussian, Inc.),
 the Gaussian 88(TM) system (copyright 1988, Gaussian, Inc.),
 the Gaussian 86(TM) system (copyright 1986, Carnegie Mellon
 University), and the Gaussian 82(TM) system (copyright 1983,
 Carnegie Mellon University). Gaussian is a federally registered
 trademark of Gaussian, Inc.
  
 This software contains proprietary and confidential information,
 including trade secrets, belonging to Gaussian, Inc.
  
 This software is provided under written license and may be
 used, copied, transmitted, or stored only in accord with that
 written license.
  
 The following legend is applicable only to US Government
 contracts under FAR:
  
                    RESTRICTED RIGHTS LEGEND
  
 Use, reproduction and disclosure by the US Government is
 subject to restrictions as set forth in subparagraphs (a)
 and (c) of the Commercial Computer Software - Restricted
 Rights clause in FAR 52.227-19.
  
 Gaussian, Inc.
 340 Quinnipiac St., Bldg. 40, Wallingford CT 06492
  
  
 ---------------------------------------------------------------
 Warning -- This program may not be used in any manner that
 competes with the business of Gaussian, Inc. or will provide
 assistance to any competitor of Gaussian, Inc.  The licensee
 of this program is prohibited from giving any competitor of
 Gaussian, Inc. access to this program.  By using this program,
 the user acknowledges that Gaussian, Inc. is engaged in the
 business of creating and licensing software in the field of
 computational chemistry and represents and warrants to the
 licensee that it is not a competitor of Gaussian, Inc. and that
 it will not use this program in any manner prohibited above.
 ---------------------------------------------------------------
  

 Cite this work as:
 Gaussian 16, Revision A.03,
 M. J. Frisch, G. W. Trucks, H. B. Schlegel, G. E. Scuseria, 
 M. A. Robb, J. R. Cheeseman, G. Scalmani, V. Barone, 
 G. A. Petersson, H. Nakatsuji, X. Li, M. Caricato, A. V. Marenich, 
 J. Bloino, B. G. Janesko, R. Gomperts, B. Mennucci, H. P. Hratchian, 
 J. V. Ortiz, A. F. Izmaylov, J. L. Sonnenberg, D. Williams-Young, 
 F. Ding, F. Lipparini, F. Egidi, J. Goings, B. Peng, A. Petrone, 
 T. Henderson, D. Ranasinghe, V. G. Zakrzewski, J. Gao, N. Rega, 
 G. Zheng, W. Liang, M. Hada, M. Ehara, K. Toyota, R. Fukuda, 
 J. Hasegawa, M. Ishida, T. Nakajima, Y. Honda, O. Kitao, H. Nakai, 
 T. Vreven, K. Throssell, J. A. Montgomery, Jr., J. E. Peralta, 
 F. Ogliaro, M. J. Bearpark, J. J. Heyd, E. N. Brothers, K. N. Kudin, 
 V. N. Staroverov, T. A. Keith, R. Kobayashi, J. Normand, 
 K. Raghavachari, A. P. Rendell, J. C. Burant, S. S. Iyengar, 
 J. Tomasi, M. Cossi, J. M. Millam, M. Klene, C. Adamo, R. Cammi, 
 J. W. Ochterski, R. L. Martin, K. Morokuma, O. Farkas, 
 J. B. Foresman, and D. J. Fox, Gaussian, Inc., Wallingford CT, 2016.
 
 ******************************************
 Gaussian 16:  ES64L-G16RevA.03 25-Dec-2016
                12-Oct-2023 
 ******************************************
 %nprocshared=2
 Will use up to    2 processors via shared memory.
 %mem=2GB
 ------------------
 # ub3lyp/6-31+g(d)
 ------------------
 1/38=1,172=1/1;
 2/12=2,17=6,18=5,40=1/2;
 3/5=1,6=6,7=11,11=2,25=1,30=1,74=-5,116=2/1,2,3;
 4//1;
 5/5=2,38=5/2;
 6/7=2,8=2,9=2,10=2,28=1/1;
 99/5=1,9=1/99;
 -----------------------
 tmpdir/M2_conf_0_16.gjf
 -----------------------
 Symbolic Z-matrix:
 Charge =  0 Multiplicity = 1
 C                     0.        0.        0. 
 C                     1.3877    0.        0. 
 C                    -0.70474   0.       -1.21281 
 H                    -0.65096  -0.01204   0.88415 
 C                     2.07578   0.00021  -1.21568 
 H                     1.9342   -0.00148   0.93974 
 
                          Input orientation:                          
 ---------------------------------------------------------------------
 Center     Atomic      Atomic             Coordinates (Angstroms)
 Number     Number       Type             X           Y           Z
 ---------------------------------------------------------------------
      1          6           0        0.000000    0.000000    0.000000
      2          6           0        1.387700    0.000000    0.000000
      3          6           0       -0.704740    0.000000   -1.212810
      4          1           0       -0.650960   -0.012040    0.884150
      5          6           0        2.075780    0.000210   -1.215680
      6          1           0        1.934200   -0.001480    0.939740
 ---------------------------------------------------------------------
                    Distance matrix (angstroms):
                    1          2          3          4          5
     1  C    0.000000
     2  C    1.387700   0.000000
     3  C    1.402700   2.418515   0.000000
     4  H    1.098005   2.222161   2.097684   0.000000
     5  C    2.405564   1.396901   2.780521   3.441591   0.000000
     6  H    2.150405   1.087095   3.405507   2.585779   2.160066
                    6
     6  H    0.000000
 Stoichiometry    C4H2
 Framework group  C1[X(C4H2)]
 Deg. of freedom    12
 Full point group                 C1      NOp   1
 Largest Abelian subgroup         C1      NOp   1
 Largest concise Abelian subgroup C1      NOp   1
                         Standard orientation:                         
 ---------------------------------------------------------------------
 Center     Atomic      Atomic             Coordinates (Angstroms)
 Number     Number       Type             X           Y           Z
 ---------------------------------------------------------------------
      1          6           0       -0.686655    0.489333   -0.001542
      2          6           0        0.701043    0.491227   -0.000857
      3          6           0       -1.389740   -0.724436   -0.000080
      4          1           0       -1.338827    1.372611    0.008857
      5          6           0        1.390781   -0.723512    0.001088
      6          1           0        1.246260    1.431713   -0.000510
 ---------------------------------------------------------------------
 Rotational constants (GHZ):          22.8077265           8.2423230           6.0543927
 Standard basis: 6-31+G(d) (6D, 7F)
 There are    80 symmetry adapted cartesian basis functions of A   symmetry.
 There are    80 symmetry adapted basis functions of A   symmetry.
    80 basis functions,   136 primitive gaussians,    80 cartesian basis functions
    13 alpha electrons       13 beta electrons
       nuclear repulsion energy        77.3551088389 Hartrees.
 NAtoms=    6 NActive=    6 NUniq=    6 SFac= 1.00D+00 NAtFMM=   60 NAOKFM=F Big=F
 Integral buffers will be    131072 words long.
 Raffenetti 2 integral format.
 Two-electron integral symmetry is turned on.
 One-electron integrals computed using PRISM.
 NBasis=    80 RedAO= T EigKep=  4.30D-05  NBF=    80
 NBsUse=    80 1.00D-06 EigRej= -1.00D+00 NBFU=    80
 ExpMin= 4.38D-02 ExpMax= 3.05D+03 ExpMxC= 4.57D+02 IAcc=3 IRadAn=         5 AccDes= 0.00D+00
 Harris functional with IExCor=  402 and IRadAn=       5 diagonalized for initial guess.
 HarFok:  IExCor=  402 AccDes= 0.00D+00 IRadAn=         5 IDoV= 1 UseB2=F ITyADJ=14
 ICtDFT=  3500011 ScaDFX=  1.000000  1.000000  1.000000  1.000000
 FoFCou: FMM=F IPFlag=           0 FMFlag=      100000 FMFlg1=           0
         NFxFlg=           0 DoJE=T BraDBF=F KetDBF=T FulRan=T
         wScrn=  0.000000 ICntrl=       500 IOpCl=  0 I1Cent=   200000004 NGrid=           0
         NMat0=    1 NMatS0=      1 NMatT0=    0 NMatD0=    1 NMtDS0=    0 NMtDT0=    0
 Petite list used in FoFCou.
 Initial guess <Sx>= 0.0000 <Sy>= 0.0000 <Sz>= 0.0000 <S**2>=-0.0000 S=-0.0000
 Keep R1 and R2 ints in memory in canonical form, NReq=12310292.
 Requested convergence on RMS density matrix=1.00D-08 within 128 cycles.
 Requested convergence on MAX density matrix=1.00D-06.
 Requested convergence on             energy=1.00D-06.
 No special actions if energy rises.
 SCF Done:  E(UB3LYP) =  -153.310883320     A.U. after   14 cycles
            NFock= 14  Conv=0.35D-08     -V/T= 2.0108
 <Sx>= 0.0000 <Sy>= 0.0000 <Sz>= 0.0000 <S**2>=-0.0000 S=-0.0000
 <L.S>= 0.000000000000E+00
 Annihilation of the first spin contaminant:
 S**2 before annihilation    -0.0000,   after    -0.0000

 **********************************************************************

            Population analysis using the SCF density.

 **********************************************************************

 Orbital symmetries:
 Alpha Orbitals:
       Occupied  (A) (A) (A) (A) (A) (A) (A) (A) (A) (A) (A) (A)
                 (A)
       Virtual   (A) (A) (A) (A) (A) (A) (A) (A) (A) (A) (A) (A)
                 (A) (A) (A) (A) (A) (A) (A) (A) (A) (A) (A) (A)
                 (A) (A) (A) (A) (A) (A) (A) (A) (A) (A) (A) (A)
                 (A) (A) (A) (A) (A) (A) (A) (A) (A) (A) (A) (A)
                 (A) (A) (A) (A) (A) (A) (A) (A) (A) (A) (A) (A)
                 (A) (A) (A) (A) (A) (A) (A)
 Beta  Orbitals:
       Occupied  (A) (A) (A) (A) (A) (A) (A) (A) (A) (A) (A) (A)
                 (A)
       Virtual   (A) (A) (A) (A) (A) (A) (A) (A) (A) (A) (A) (A)
                 (A) (A) (A) (A) (A) (A) (A) (A) (A) (A) (A) (A)
                 (A) (A) (A) (A) (A) (A) (A) (A) (A) (A) (A) (A)
                 (A) (A) (A) (A) (A) (A) (A) (A) (A) (A) (A) (A)
                 (A) (A) (A) (A) (A) (A) (A) (A) (A) (A) (A) (A)
                 (A) (A) (A) (A) (A) (A) (A)
 The electronic state is 1-A.
 Alpha  occ. eigenvalues --  -10.29317 -10.29157 -10.24565 -10.24492  -0.86357
 Alpha  occ. eigenvalues --   -0.73518  -0.61759  -0.51628  -0.49903  -0.37390
 Alpha  occ. eigenvalues --   -0.33410  -0.31173  -0.25405
 Alpha virt. eigenvalues --   -0.14884  -0.11429  -0.08372   0.00214   0.02696
 Alpha virt. eigenvalues --    0.04091   0.04517   0.05750   0.06636   0.08023
 Alpha virt. eigenvalues --    0.09060   0.09113   0.10618   0.11972   0.12801
 Alpha virt. eigenvalues --    0.15271   0.16435   0.17279   0.17599   0.20369
 Alpha virt. eigenvalues --    0.20903   0.25679   0.28258   0.37577   0.43245
 Alpha virt. eigenvalues --    0.57461   0.63141   0.63490   0.67447   0.69025
 Alpha virt. eigenvalues --    0.69237   0.69588   0.73040   0.73080   0.75662
 Alpha virt. eigenvalues --    0.79080   0.79707   0.89546   0.94149   1.05323
 Alpha virt. eigenvalues --    1.05746   1.14865   1.23513   1.29232   1.39168
 Alpha virt. eigenvalues --    1.47661   1.63743   1.65431   1.71651   1.72519
 Alpha virt. eigenvalues --    1.74449   1.87325   1.88104   1.99813   2.15231
 Alpha virt. eigenvalues --    2.19157   2.20121   2.25021   2.45502   2.54108
 Alpha virt. eigenvalues --    2.56132   2.76692   2.94589   4.05577   4.12820
 Alpha virt. eigenvalues --    4.20956   4.41954
  Beta  occ. eigenvalues --  -10.29317 -10.29157 -10.24565 -10.24492  -0.86357
  Beta  occ. eigenvalues --   -0.73518  -0.61759  -0.51628  -0.49903  -0.37390
  Beta  occ. eigenvalues --   -0.33410  -0.31173  -0.25405
  Beta virt. eigenvalues --   -0.14884  -0.11429  -0.08372   0.00214   0.02696
  Beta virt. eigenvalues --    0.04091   0.04517   0.05750   0.06636   0.08023
  Beta virt. eigenvalues --    0.09060   0.09113   0.10618   0.11972   0.12801
  Beta virt. eigenvalues --    0.15271   0.16435   0.17279   0.17599   0.20369
  Beta virt. eigenvalues --    0.20903   0.25679   0.28258   0.37577   0.43245
  Beta virt. eigenvalues --    0.57461   0.63141   0.63490   0.67447   0.69025
  Beta virt. eigenvalues --    0.69237   0.69588   0.73040   0.73080   0.75662
  Beta virt. eigenvalues --    0.79080   0.79707   0.89546   0.94149   1.05323
  Beta virt. eigenvalues --    1.05746   1.14865   1.23513   1.29232   1.39168
  Beta virt. eigenvalues --    1.47661   1.63743   1.65431   1.71651   1.72519
  Beta virt. eigenvalues --    1.74449   1.87325   1.88104   1.99813   2.15231
  Beta virt. eigenvalues --    2.19157   2.20121   2.25021   2.45502   2.54108
  Beta virt. eigenvalues --    2.56132   2.76692   2.94589   4.05577   4.12820
  Beta virt. eigenvalues --    4.20956   4.41954
          Condensed to atoms (all electrons):
               1          2          3          4          5          6
     1  C    7.337535  -0.855504  -1.735502   0.152405   0.904066   0.065531
     2  C   -0.855504   7.361906   0.887345   0.073028  -1.751161   0.164591
     3  C   -1.735502   0.887345   7.820095   0.131332  -0.675948  -0.050043
     4  H    0.152405   0.073028   0.131332   0.448034  -0.048750  -0.007313
     5  C    0.904066  -1.751161  -0.675948  -0.048750   7.818390   0.127993
     6  H    0.065531   0.164591  -0.050043  -0.007313   0.127993   0.449905
          Atomic-Atomic Spin Densities.
               1          2          3          4          5          6
     1  C   -0.000000   0.000000   0.000000   0.000000  -0.000000  -0.000000
     2  C    0.000000  -0.000000  -0.000000  -0.000000   0.000000   0.000000
     3  C    0.000000  -0.000000  -0.000000  -0.000000   0.000000   0.000000
     4  H    0.000000  -0.000000  -0.000000  -0.000000   0.000000   0.000000
     5  C   -0.000000   0.000000   0.000000   0.000000  -0.000000  -0.000000
     6  H   -0.000000   0.000000   0.000000   0.000000  -0.000000  -0.000000
 Mulliken charges and spin densities:
               1          2
     1  C    0.131470  -0.000000
     2  C    0.119797   0.000000
     3  C   -0.377278  -0.000000
     4  H    0.251265  -0.000000
     5  C   -0.374590  -0.000000
     6  H    0.249336  -0.000000
 Sum of Mulliken charges =  -0.00000  -0.00000
 Mulliken charges and spin densities with hydrogens summed into heavy atoms:
               1          2
     1  C    0.382735  -0.000000
     2  C    0.369133   0.000000
     3  C   -0.377278  -0.000000
     5  C   -0.374590  -0.000000
 Electronic spatial extent (au):  <R**2>=            219.4863
 Charge=             -0.0000 electrons
 Dipole moment (field-independent basis, Debye):
    X=              0.0044    Y=              3.6783    Z=              0.0094  Tot=              3.6783
 Quadrupole moment (field-independent basis, Debye-Ang):
   XX=            -25.6534   YY=            -24.5000   ZZ=            -26.8758
   XY=             -0.1118   XZ=             -0.0307   YZ=              0.0207
 Traceless Quadrupole moment (field-independent basis, Debye-Ang):
   XX=              0.0230   YY=              1.1764   ZZ=             -1.1994
   XY=             -0.1118   XZ=             -0.0307   YZ=              0.0207
 Octapole moment (field-independent basis, Debye-Ang**2):
  XXX=              0.1310  YYY=             16.2582  ZZZ=              0.0125  XYY=              0.0591
  XXY=             15.0260  XXZ=              0.0444  XZZ=              0.0731  YZZ=              2.5020
  YYZ=              0.0194  XYZ=             -0.0166
 Hexadecapole moment (field-independent basis, Debye-Ang**3):
 XXXX=           -219.2859 YYYY=           -103.1991 ZZZZ=            -36.5403 XXXY=             -1.2398
 XXXZ=             -0.1415 YYYX=              0.2736 YYYZ=              0.0573 ZZZX=             -0.0431
 ZZZY=              0.0208 XXYY=            -62.0992 XXZZ=            -47.7553 YYZZ=            -24.5464
 XXYZ=              0.0391 YYXZ=             -0.0454 ZZXY=             -0.0092
 N-N= 7.735510883894D+01 E-N=-5.089776720585D+02  KE= 1.516762775740D+02
                          Isotropic Fermi Contact Couplings
        Atom                 a.u.       MegaHertz       Gauss      10(-4) cm-1
     1  C(13)              0.00000       0.00000       0.00000       0.00000
     2  C(13)             -0.00000      -0.00000      -0.00000      -0.00000
     3  C(13)             -0.00000      -0.00000      -0.00000      -0.00000
     4  H(1)               0.00000       0.00000       0.00000       0.00000
     5  C(13)             -0.00000      -0.00000      -0.00000      -0.00000
     6  H(1)              -0.00000      -0.00000      -0.00000      -0.00000
 --------------------------------------------------------
       Center         ----  Spin Dipole Couplings  ----
                      3XX-RR        3YY-RR        3ZZ-RR
 --------------------------------------------------------
     1   Atom        0.000000     -0.000000     -0.000000
     2   Atom        0.000000      0.000000     -0.000000
     3   Atom       -0.000000      0.000000     -0.000000
     4   Atom       -0.000000      0.000000     -0.000000
     5   Atom        0.000000     -0.000000     -0.000000
     6   Atom        0.000000      0.000000     -0.000000
 --------------------------------------------------------
                        XY            XZ            YZ
 --------------------------------------------------------
     1   Atom        0.000000      0.000000      0.000000
     2   Atom        0.000000      0.000000     -0.000000
     3   Atom        0.000000      0.000000     -0.000000
     4   Atom       -0.000000      0.000000     -0.000000
     5   Atom       -0.000000      0.000000      0.000000
     6   Atom        0.000000      0.000000      0.000000
 --------------------------------------------------------


 ---------------------------------------------------------------------------------
              Anisotropic Spin Dipole Couplings in Principal Axis System
 ---------------------------------------------------------------------------------

       Atom             a.u.   MegaHertz   Gauss  10(-4) cm-1        Axes

              Baa    -0.0000    -0.000    -0.000    -0.000  0.0391 -0.1827  0.9824
     1 C(13)  Bbb    -0.0000    -0.000    -0.000    -0.000 -0.3545  0.9167  0.1846
              Bcc     0.0000     0.000     0.000     0.000  0.9342  0.3555  0.0290
 
              Baa    -0.0000    -0.000    -0.000    -0.000 -0.0240  0.0605  0.9979
     2 C(13)  Bbb     0.0000     0.000     0.000     0.000  0.9796 -0.1976  0.0355
              Bcc     0.0000     0.000     0.000     0.000  0.1993  0.9784 -0.0545
 
              Baa    -0.0000    -0.000    -0.000    -0.000  0.7156 -0.5460 -0.4357
     3 C(13)  Bbb    -0.0000    -0.000    -0.000    -0.000  0.2473 -0.3853  0.8890
              Bcc     0.0000     0.000     0.000     0.000  0.6532  0.7439  0.1407
 
              Baa    -0.0000    -0.000    -0.000    -0.000 -0.1447 -0.0335  0.9889
     4 H(1)   Bbb    -0.0000    -0.000    -0.000    -0.000  0.9023  0.4056  0.1458
              Bcc     0.0000     0.000     0.000     0.000 -0.4060  0.9134 -0.0285
 
              Baa    -0.0000    -0.000    -0.000    -0.000  0.4381  0.6770 -0.5913
     5 C(13)  Bbb     0.0000     0.000     0.000     0.000 -0.3100  0.7313  0.6075
              Bcc     0.0000     0.000     0.000     0.000  0.8438 -0.0828  0.5303
 
              Baa    -0.0000    -0.000    -0.000    -0.000  0.7305 -0.6827  0.0190
     6 H(1)   Bbb    -0.0000    -0.000    -0.000    -0.000 -0.0524 -0.0282  0.9982
              Bcc     0.0000     0.000     0.000     0.000  0.6809  0.7302  0.0564
 

 ---------------------------------------------------------------------------------

 1\1\GINC-NODE32\SP\UB3LYP\6-31+G(d)\C4H2\YANZ\12-Oct-2023\0\\# ub3lyp/
 6-31+g(d)\\tmpdir/M2_conf_0_16.gjf\\0,1\C,0,0.,0.,0.\C,0,1.3877,0.,0.\
 C,0,-0.70474,0.,-1.21281\H,0,-0.65096,-0.01204,0.88415\C,0,2.07578,0.0
 0021,-1.21568\H,0,1.9342,-0.00148,0.93974\\Version=ES64L-G16RevA.03\St
 ate=1-A\HF=-153.3108833\S2=0.\S2-1=0.\S2A=0.\RMSD=3.451e-09\Dipole=0.0
 037046,-0.0058652,1.4471426\Quadrupole=0.0168682,-0.8916863,0.8748181,
 0.0233458,-0.0819243,-0.0180843\PG=C01 [X(C4H2)]\\@


 HONESTY IN A LAWYER IS LIKE A HEN'S HIND LEGS.
  -- MAGNUS OLESON, LAKE WOBEGON PATRIARCH, C.1875
 Job cpu time:       0 days  0 hours  0 minutes 31.1 seconds.
 Elapsed time:       0 days  0 hours  0 minutes 15.8 seconds.
 File lengths (MBytes):  RWF=     10 Int=      0 D2E=      0 Chk=      2 Scr=      1
 Normal termination of Gaussian 16 at Thu Oct 12 15:13:31 2023.
