 Entering Gaussian System, Link 0=g16
 Initial command:
 /share/apps/gaussian/g16/l1.exe "/tmp/58286.mgr/Gau-30745.inp" -scrdir="/tmp/58286.mgr/"
 Entering Link 1 = /share/apps/gaussian/g16/l1.exe PID=     30747.
  
 Copyright (c) 1988,1990,1992,1993,1995,1998,2003,2009,2016,
            Gaussian, Inc.  All Rights Reserved.
  
 This is part of the Gaussian(R) 16 program.  It is based on
 the Gaussian(R) 09 system (copyright 2009, Gaussian, Inc.),
 the Gaussian(R) 03 system (copyright 2003, Gaussian, Inc.),
 the Gaussian(R) 98 system (copyright 1998, Gaussian, Inc.),
 the Gaussian(R) 94 system (copyright 1995, Gaussian, Inc.),
 the Gaussian 92(TM) system (copyright 1992, Gaussian, Inc.),
 the Gaussian 90(TM) system (copyright 1990, Gaussian, Inc.),
 the Gaussian 88(TM) system (copyright 1988, Gaussian, Inc.),
 the Gaussian 86(TM) system (copyright 1986, Carnegie Mellon
 University), and the Gaussian 82(TM) system (copyright 1983,
 Carnegie Mellon University). Gaussian is a federally registered
 trademark of Gaussian, Inc.
  
 This software contains proprietary and confidential information,
 including trade secrets, belonging to Gaussian, Inc.
  
 This software is provided under written license and may be
 used, copied, transmitted, or stored only in accord with that
 written license.
  
 The following legend is applicable only to US Government
 contracts under FAR:
  
                    RESTRICTED RIGHTS LEGEND
  
 Use, reproduction and disclosure by the US Government is
 subject to restrictions as set forth in subparagraphs (a)
 and (c) of the Commercial Computer Software - Restricted
 Rights clause in FAR 52.227-19.
  
 Gaussian, Inc.
 340 Quinnipiac St., Bldg. 40, Wallingford CT 06492
  
  
 ---------------------------------------------------------------
 Warning -- This program may not be used in any manner that
 competes with the business of Gaussian, Inc. or will provide
 assistance to any competitor of Gaussian, Inc.  The licensee
 of this program is prohibited from giving any competitor of
 Gaussian, Inc. access to this program.  By using this program,
 the user acknowledges that Gaussian, Inc. is engaged in the
 business of creating and licensing software in the field of
 computational chemistry and represents and warrants to the
 licensee that it is not a competitor of Gaussian, Inc. and that
 it will not use this program in any manner prohibited above.
 ---------------------------------------------------------------
  

 Cite this work as:
 Gaussian 16, Revision A.03,
 M. J. Frisch, G. W. Trucks, H. B. Schlegel, G. E. Scuseria, 
 M. A. Robb, J. R. Cheeseman, G. Scalmani, V. Barone, 
 G. A. Petersson, H. Nakatsuji, X. Li, M. Caricato, A. V. Marenich, 
 J. Bloino, B. G. Janesko, R. Gomperts, B. Mennucci, H. P. Hratchian, 
 J. V. Ortiz, A. F. Izmaylov, J. L. Sonnenberg, D. Williams-Young, 
 F. Ding, F. Lipparini, F. Egidi, J. Goings, B. Peng, A. Petrone, 
 T. Henderson, D. Ranasinghe, V. G. Zakrzewski, J. Gao, N. Rega, 
 G. Zheng, W. Liang, M. Hada, M. Ehara, K. Toyota, R. Fukuda, 
 J. Hasegawa, M. Ishida, T. Nakajima, Y. Honda, O. Kitao, H. Nakai, 
 T. Vreven, K. Throssell, J. A. Montgomery, Jr., J. E. Peralta, 
 F. Ogliaro, M. J. Bearpark, J. J. Heyd, E. N. Brothers, K. N. Kudin, 
 V. N. Staroverov, T. A. Keith, R. Kobayashi, J. Normand, 
 K. Raghavachari, A. P. Rendell, J. C. Burant, S. S. Iyengar, 
 J. Tomasi, M. Cossi, J. M. Millam, M. Klene, C. Adamo, R. Cammi, 
 J. W. Ochterski, R. L. Martin, K. Morokuma, O. Farkas, 
 J. B. Foresman, and D. J. Fox, Gaussian, Inc., Wallingford CT, 2016.
 
 ******************************************
 Gaussian 16:  ES64L-G16RevA.03 25-Dec-2016
                12-Oct-2023 
 ******************************************
 %nprocshared=2
 Will use up to    2 processors via shared memory.
 %mem=2GB
 ------------------
 # ub3lyp/6-31+g(d)
 ------------------
 1/38=1,172=1/1;
 2/12=2,17=6,18=5,40=1/2;
 3/5=1,6=6,7=11,11=2,25=1,30=1,74=-5,116=2/1,2,3;
 4//1;
 5/5=2,38=5/2;
 6/7=2,8=2,9=2,10=2,28=1/1;
 99/5=1,9=1/99;
 ----------------------
 tmpdir/M2_conf_0_1.gjf
 ----------------------
 Symbolic Z-matrix:
 Charge =  0 Multiplicity = 1
 C                     0.        0.        0. 
 C                     1.3918    0.        0. 
 C                    -0.7039    0.       -1.20555 
 H                    -0.5419   -0.00049   0.94125 
 C                     2.09657   0.00189  -1.20608 
 H                     1.93365   0.00033   0.94117 
 
                          Input orientation:                          
 ---------------------------------------------------------------------
 Center     Atomic      Atomic             Coordinates (Angstroms)
 Number     Number       Type             X           Y           Z
 ---------------------------------------------------------------------
      1          6           0        0.000000    0.000000    0.000000
      2          6           0        1.391800    0.000000    0.000000
      3          6           0       -0.703900    0.000000   -1.205550
      4          1           0       -0.541900   -0.000490    0.941250
      5          6           0        2.096570    0.001890   -1.206080
      6          1           0        1.933650    0.000330    0.941170
 ---------------------------------------------------------------------
                    Distance matrix (angstroms):
                    1          2          3          4          5
     1  C    0.000000
     2  C    1.391800   0.000000
     3  C    1.396004   2.417707   0.000000
     4  H    1.086097   2.150616   2.152904   0.000000
     5  C    2.418727   1.396901   2.800471   3.401846   0.000000
     6  H    2.150536   1.086003   3.400747   2.475550   2.153422
                    6
     6  H    0.000000
 Stoichiometry    C4H2
 Framework group  C1[X(C4H2)]
 Deg. of freedom    12
 Full point group                 C1      NOp   1
 Largest Abelian subgroup         C1      NOp   1
 Largest concise Abelian subgroup C1      NOp   1
                         Standard orientation:                         
 ---------------------------------------------------------------------
 Center     Atomic      Atomic             Coordinates (Angstroms)
 Number     Number       Type             X           Y           Z
 ---------------------------------------------------------------------
      1          6           0        0.696310    0.483826    0.000243
      2          6           0       -0.695490    0.484433   -0.000482
      3          6           0        1.399685   -0.722030   -0.000162
      4          1           0        1.238620    1.424840    0.000639
      5          6           0       -1.400786   -0.721341    0.000267
      6          1           0       -1.236930    1.425838    0.000168
 ---------------------------------------------------------------------
 Rotational constants (GHZ):          22.9091679           8.1820734           6.0288527
 Standard basis: 6-31+G(d) (6D, 7F)
 There are    80 symmetry adapted cartesian basis functions of A   symmetry.
 There are    80 symmetry adapted basis functions of A   symmetry.
    80 basis functions,   136 primitive gaussians,    80 cartesian basis functions
    13 alpha electrons       13 beta electrons
       nuclear repulsion energy        77.3595304539 Hartrees.
 NAtoms=    6 NActive=    6 NUniq=    6 SFac= 1.00D+00 NAtFMM=   60 NAOKFM=F Big=F
 Integral buffers will be    131072 words long.
 Raffenetti 2 integral format.
 Two-electron integral symmetry is turned on.
 One-electron integrals computed using PRISM.
 NBasis=    80 RedAO= T EigKep=  4.32D-05  NBF=    80
 NBsUse=    80 1.00D-06 EigRej= -1.00D+00 NBFU=    80
 ExpMin= 4.38D-02 ExpMax= 3.05D+03 ExpMxC= 4.57D+02 IAcc=3 IRadAn=         5 AccDes= 0.00D+00
 Harris functional with IExCor=  402 and IRadAn=       5 diagonalized for initial guess.
 HarFok:  IExCor=  402 AccDes= 0.00D+00 IRadAn=         5 IDoV= 1 UseB2=F ITyADJ=14
 ICtDFT=  3500011 ScaDFX=  1.000000  1.000000  1.000000  1.000000
 FoFCou: FMM=F IPFlag=           0 FMFlag=      100000 FMFlg1=           0
         NFxFlg=           0 DoJE=T BraDBF=F KetDBF=T FulRan=T
         wScrn=  0.000000 ICntrl=       500 IOpCl=  0 I1Cent=   200000004 NGrid=           0
         NMat0=    1 NMatS0=      1 NMatT0=    0 NMatD0=    1 NMtDS0=    0 NMtDT0=    0
 Petite list used in FoFCou.
 Initial guess <Sx>= 0.0000 <Sy>= 0.0000 <Sz>= 0.0000 <S**2>= 0.0000 S= 0.0000
 Keep R1 and R2 ints in memory in canonical form, NReq=12310292.
 Requested convergence on RMS density matrix=1.00D-08 within 128 cycles.
 Requested convergence on MAX density matrix=1.00D-06.
 Requested convergence on             energy=1.00D-06.
 No special actions if energy rises.
 SCF Done:  E(UB3LYP) =  -153.312926514     A.U. after   13 cycles
            NFock= 13  Conv=0.24D-08     -V/T= 2.0106
 <Sx>= 0.0000 <Sy>= 0.0000 <Sz>= 0.0000 <S**2>=-0.0000 S=-0.0000
 <L.S>= 0.000000000000E+00
 Annihilation of the first spin contaminant:
 S**2 before annihilation    -0.0000,   after    -0.0000

 **********************************************************************

            Population analysis using the SCF density.

 **********************************************************************

 Orbital symmetries:
 Alpha Orbitals:
       Occupied  (A) (A) (A) (A) (A) (A) (A) (A) (A) (A) (A) (A)
                 (A)
       Virtual   (A) (A) (A) (A) (A) (A) (A) (A) (A) (A) (A) (A)
                 (A) (A) (A) (A) (A) (A) (A) (A) (A) (A) (A) (A)
                 (A) (A) (A) (A) (A) (A) (A) (A) (A) (A) (A) (A)
                 (A) (A) (A) (A) (A) (A) (A) (A) (A) (A) (A) (A)
                 (A) (A) (A) (A) (A) (A) (A) (A) (A) (A) (A) (A)
                 (A) (A) (A) (A) (A) (A) (A)
 Beta  Orbitals:
       Occupied  (A) (A) (A) (A) (A) (A) (A) (A) (A) (A) (A) (A)
                 (A)
       Virtual   (A) (A) (A) (A) (A) (A) (A) (A) (A) (A) (A) (A)
                 (A) (A) (A) (A) (A) (A) (A) (A) (A) (A) (A) (A)
                 (A) (A) (A) (A) (A) (A) (A) (A) (A) (A) (A) (A)
                 (A) (A) (A) (A) (A) (A) (A) (A) (A) (A) (A) (A)
                 (A) (A) (A) (A) (A) (A) (A) (A) (A) (A) (A) (A)
                 (A) (A) (A) (A) (A) (A) (A)
 The electronic state is 1-A.
 Alpha  occ. eigenvalues --  -10.29236 -10.29223 -10.24457 -10.24402  -0.86362
 Alpha  occ. eigenvalues --   -0.73497  -0.62228  -0.51185  -0.50179  -0.37373
 Alpha  occ. eigenvalues --   -0.33380  -0.31296  -0.25491
 Alpha virt. eigenvalues --   -0.14804  -0.11690  -0.08297   0.00160   0.02829
 Alpha virt. eigenvalues --    0.04136   0.04506   0.05740   0.06642   0.08250
 Alpha virt. eigenvalues --    0.09104   0.09136   0.10610   0.11955   0.12792
 Alpha virt. eigenvalues --    0.15284   0.16394   0.17334   0.17584   0.20900
 Alpha virt. eigenvalues --    0.21016   0.26183   0.28235   0.37241   0.43232
 Alpha virt. eigenvalues --    0.57378   0.63158   0.63309   0.67479   0.69019
 Alpha virt. eigenvalues --    0.69289   0.69536   0.73069   0.73071   0.75279
 Alpha virt. eigenvalues --    0.79073   0.79254   0.90042   0.94189   1.05767
 Alpha virt. eigenvalues --    1.06055   1.17079   1.24043   1.29226   1.39213
 Alpha virt. eigenvalues --    1.47561   1.63429   1.65375   1.71773   1.71980
 Alpha virt. eigenvalues --    1.74620   1.87480   1.87584   1.98720   2.15482
 Alpha virt. eigenvalues --    2.19484   2.19660   2.26725   2.45834   2.53489
 Alpha virt. eigenvalues --    2.56204   2.77262   2.94496   4.05447   4.12906
 Alpha virt. eigenvalues --    4.20930   4.42182
  Beta  occ. eigenvalues --  -10.29236 -10.29223 -10.24457 -10.24402  -0.86362
  Beta  occ. eigenvalues --   -0.73497  -0.62228  -0.51185  -0.50179  -0.37373
  Beta  occ. eigenvalues --   -0.33380  -0.31296  -0.25491
  Beta virt. eigenvalues --   -0.14804  -0.11690  -0.08297   0.00160   0.02829
  Beta virt. eigenvalues --    0.04136   0.04506   0.05740   0.06642   0.08250
  Beta virt. eigenvalues --    0.09104   0.09136   0.10610   0.11955   0.12792
  Beta virt. eigenvalues --    0.15284   0.16394   0.17334   0.17584   0.20900
  Beta virt. eigenvalues --    0.21016   0.26183   0.28235   0.37241   0.43232
  Beta virt. eigenvalues --    0.57378   0.63158   0.63309   0.67479   0.69019
  Beta virt. eigenvalues --    0.69289   0.69536   0.73069   0.73071   0.75279
  Beta virt. eigenvalues --    0.79073   0.79254   0.90042   0.94189   1.05767
  Beta virt. eigenvalues --    1.06055   1.17079   1.24043   1.29226   1.39213
  Beta virt. eigenvalues --    1.47561   1.63429   1.65375   1.71773   1.71980
  Beta virt. eigenvalues --    1.74620   1.87480   1.87584   1.98720   2.15482
  Beta virt. eigenvalues --    2.19484   2.19660   2.26725   2.45834   2.53489
  Beta virt. eigenvalues --    2.56204   2.77262   2.94496   4.05447   4.12906
  Beta virt. eigenvalues --    4.20930   4.42182
          Condensed to atoms (all electrons):
               1          2          3          4          5          6
     1  C    7.342746  -0.811800  -1.747745   0.164055   0.853187   0.066244
     2  C   -0.811800   7.338152   0.853704   0.066250  -1.742331   0.164499
     3  C   -1.747745   0.853704   7.841327   0.126990  -0.644542  -0.048172
     4  H    0.164055   0.066250   0.126990   0.451445  -0.048119  -0.009040
     5  C    0.853187  -1.742331  -0.644542  -0.048119   7.835194   0.126674
     6  H    0.066244   0.164499  -0.048172  -0.009040   0.126674   0.451429
          Atomic-Atomic Spin Densities.
               1          2          3          4          5          6
     1  C    0.000000  -0.000000  -0.000000  -0.000000   0.000000  -0.000000
     2  C   -0.000000   0.000000   0.000000   0.000000  -0.000000  -0.000000
     3  C   -0.000000   0.000000   0.000000   0.000000  -0.000000  -0.000000
     4  H   -0.000000   0.000000   0.000000   0.000000  -0.000000  -0.000000
     5  C    0.000000  -0.000000  -0.000000  -0.000000   0.000000   0.000000
     6  H   -0.000000  -0.000000  -0.000000  -0.000000   0.000000   0.000000
 Mulliken charges and spin densities:
               1          2
     1  C    0.133312  -0.000000
     2  C    0.131527   0.000000
     3  C   -0.381562   0.000000
     4  H    0.248420   0.000000
     5  C   -0.380063   0.000000
     6  H    0.248366  -0.000000
 Sum of Mulliken charges =  -0.00000   0.00000
 Mulliken charges and spin densities with hydrogens summed into heavy atoms:
               1          2
     1  C    0.381732  -0.000000
     2  C    0.379893   0.000000
     3  C   -0.381562   0.000000
     5  C   -0.380063   0.000000
 Electronic spatial extent (au):  <R**2>=            219.8841
 Charge=              0.0000 electrons
 Dipole moment (field-independent basis, Debye):
    X=              0.0028    Y=              3.7213    Z=              0.0009  Tot=              3.7213
 Quadrupole moment (field-independent basis, Debye-Ang):
   XX=            -25.8918   YY=            -24.3295   ZZ=            -26.8447
   XY=              0.0019   XZ=              0.0025   YZ=              0.0020
 Traceless Quadrupole moment (field-independent basis, Debye-Ang):
   XX=             -0.2031   YY=              1.3592   ZZ=             -1.1560
   XY=              0.0019   XZ=              0.0025   YZ=              0.0020
 Octapole moment (field-independent basis, Debye-Ang**2):
  XXX=              0.0318  YYY=             16.7152  ZZZ=              0.0013  XYY=             -0.0010
  XXY=             14.7610  XXZ=              0.0041  XZZ=              0.0057  YZZ=              2.5310
  YYZ=              0.0021  XYZ=             -0.0014
 Hexadecapole moment (field-independent basis, Debye-Ang**3):
 XXXX=           -220.9370 YYYY=           -102.0783 ZZZZ=            -36.4454 XXXY=             -0.0167
 XXXZ=              0.0154 YYYX=              0.0151 YYYZ=              0.0060 ZZZX=              0.0021
 ZZZY=              0.0020 XXYY=            -62.6938 XXZZ=            -47.8336 YYZZ=            -24.4611
 XXYZ=              0.0034 YYXZ=              0.0018 ZZXY=              0.0011
 N-N= 7.735953045389D+01 E-N=-5.090054402092D+02  KE= 1.516993909637D+02
                          Isotropic Fermi Contact Couplings
        Atom                 a.u.       MegaHertz       Gauss      10(-4) cm-1
     1  C(13)             -0.00000      -0.00000      -0.00000      -0.00000
     2  C(13)             -0.00000      -0.00000      -0.00000      -0.00000
     3  C(13)              0.00000       0.00000       0.00000       0.00000
     4  H(1)               0.00000       0.00000       0.00000       0.00000
     5  C(13)              0.00000       0.00000       0.00000       0.00000
     6  H(1)              -0.00000      -0.00000      -0.00000      -0.00000
 --------------------------------------------------------
       Center         ----  Spin Dipole Couplings  ----
                      3XX-RR        3YY-RR        3ZZ-RR
 --------------------------------------------------------
     1   Atom       -0.000000      0.000000     -0.000000
     2   Atom        0.000000     -0.000000     -0.000000
     3   Atom       -0.000000      0.000000     -0.000000
     4   Atom       -0.000000      0.000000     -0.000000
     5   Atom       -0.000000      0.000000     -0.000000
     6   Atom        0.000000     -0.000000      0.000000
 --------------------------------------------------------
                        XY            XZ            YZ
 --------------------------------------------------------
     1   Atom       -0.000000     -0.000000      0.000000
     2   Atom        0.000000      0.000000      0.000000
     3   Atom       -0.000000     -0.000000     -0.000000
     4   Atom        0.000000      0.000000      0.000000
     5   Atom        0.000000     -0.000000     -0.000000
     6   Atom        0.000000     -0.000000      0.000000
 --------------------------------------------------------


 ---------------------------------------------------------------------------------
              Anisotropic Spin Dipole Couplings in Principal Axis System
 ---------------------------------------------------------------------------------

       Atom             a.u.   MegaHertz   Gauss  10(-4) cm-1        Axes

              Baa    -0.0000    -0.000    -0.000    -0.000  0.8180  0.5750 -0.0179
     1 C(13)  Bbb    -0.0000    -0.000    -0.000    -0.000  0.0254 -0.0051  0.9997
              Bcc     0.0000     0.000     0.000     0.000 -0.5747  0.8182  0.0188
 
              Baa    -0.0000    -0.000    -0.000    -0.000 -0.4262  0.9045  0.0182
     2 C(13)  Bbb    -0.0000    -0.000    -0.000    -0.000 -0.0587 -0.0477  0.9971
              Bcc     0.0000     0.000     0.000     0.000  0.9027  0.4239  0.0734
 
              Baa    -0.0000    -0.000    -0.000    -0.000  0.8811  0.3176  0.3504
     3 C(13)  Bbb    -0.0000    -0.000    -0.000    -0.000 -0.3386 -0.0935  0.9363
              Bcc     0.0000     0.000     0.000     0.000 -0.3301  0.9436 -0.0252
 
              Baa    -0.0000    -0.000    -0.000    -0.000 -0.0162 -0.0404  0.9991
     4 H(1)   Bbb    -0.0000    -0.000    -0.000    -0.000  0.9895 -0.1441  0.0102
              Bcc     0.0000     0.000     0.000     0.000  0.1436  0.9887  0.0423
 
              Baa    -0.0000    -0.000    -0.000    -0.000  0.4023 -0.1715  0.8993
     5 C(13)  Bbb    -0.0000    -0.000    -0.000    -0.000  0.7789 -0.4520 -0.4347
              Bcc     0.0000     0.000     0.000     0.000  0.4810  0.8754 -0.0483
 
              Baa    -0.0000    -0.000    -0.000    -0.000 -0.4263  0.9020 -0.0678
     6 H(1)   Bbb     0.0000     0.000     0.000     0.000 -0.0664  0.0435  0.9968
              Bcc     0.0000     0.000     0.000     0.000  0.9021  0.4295  0.0414
 

 ---------------------------------------------------------------------------------

 1\1\GINC-NODE32\SP\UB3LYP\6-31+G(d)\C4H2\YANZ\12-Oct-2023\0\\# ub3lyp/
 6-31+g(d)\\tmpdir/M2_conf_0_1.gjf\\0,1\C,0,0.,0.,0.\C,0,1.3918,0.,0.\C
 ,0,-0.7039,0.,-1.20555\H,0,-0.5419,-0.00049,0.94125\C,0,2.09657,0.0018
 9,-1.20608\H,0,1.93365,0.00033,0.94117\\Version=ES64L-G16RevA.03\State
 =1-A\HF=-153.3129265\S2=0.\S2-1=0.\S2A=0.\RMSD=2.427e-09\Dipole=-0.000
 4728,-0.0005763,1.4640816\Quadrupole=-0.1510311,-0.8594678,1.0104988,-
 0.001476,-0.0009067,0.0003195\PG=C01 [X(C4H2)]\\@


 The impersonal hand of government can
 never replace the helping hand of a neighbor.
                        -- Hubert H. Humphrey
 Job cpu time:       0 days  0 hours  0 minutes 29.4 seconds.
 Elapsed time:       0 days  0 hours  0 minutes 15.0 seconds.
 File lengths (MBytes):  RWF=     10 Int=      0 D2E=      0 Chk=      2 Scr=      1
 Normal termination of Gaussian 16 at Thu Oct 12 15:13:21 2023.
