 Entering Gaussian System, Link 0=g16
 Initial command:
 /share/apps/gaussian/g16/l1.exe "/tmp/58286.mgr/Gau-30660.inp" -scrdir="/tmp/58286.mgr/"
 Entering Link 1 = /share/apps/gaussian/g16/l1.exe PID=     30669.
  
 Copyright (c) 1988,1990,1992,1993,1995,1998,2003,2009,2016,
            Gaussian, Inc.  All Rights Reserved.
  
 This is part of the Gaussian(R) 16 program.  It is based on
 the Gaussian(R) 09 system (copyright 2009, Gaussian, Inc.),
 the Gaussian(R) 03 system (copyright 2003, Gaussian, Inc.),
 the Gaussian(R) 98 system (copyright 1998, Gaussian, Inc.),
 the Gaussian(R) 94 system (copyright 1995, Gaussian, Inc.),
 the Gaussian 92(TM) system (copyright 1992, Gaussian, Inc.),
 the Gaussian 90(TM) system (copyright 1990, Gaussian, Inc.),
 the Gaussian 88(TM) system (copyright 1988, Gaussian, Inc.),
 the Gaussian 86(TM) system (copyright 1986, Carnegie Mellon
 University), and the Gaussian 82(TM) system (copyright 1983,
 Carnegie Mellon University). Gaussian is a federally registered
 trademark of Gaussian, Inc.
  
 This software contains proprietary and confidential information,
 including trade secrets, belonging to Gaussian, Inc.
  
 This software is provided under written license and may be
 used, copied, transmitted, or stored only in accord with that
 written license.
  
 The following legend is applicable only to US Government
 contracts under FAR:
  
                    RESTRICTED RIGHTS LEGEND
  
 Use, reproduction and disclosure by the US Government is
 subject to restrictions as set forth in subparagraphs (a)
 and (c) of the Commercial Computer Software - Restricted
 Rights clause in FAR 52.227-19.
  
 Gaussian, Inc.
 340 Quinnipiac St., Bldg. 40, Wallingford CT 06492
  
  
 ---------------------------------------------------------------
 Warning -- This program may not be used in any manner that
 competes with the business of Gaussian, Inc. or will provide
 assistance to any competitor of Gaussian, Inc.  The licensee
 of this program is prohibited from giving any competitor of
 Gaussian, Inc. access to this program.  By using this program,
 the user acknowledges that Gaussian, Inc. is engaged in the
 business of creating and licensing software in the field of
 computational chemistry and represents and warrants to the
 licensee that it is not a competitor of Gaussian, Inc. and that
 it will not use this program in any manner prohibited above.
 ---------------------------------------------------------------
  

 Cite this work as:
 Gaussian 16, Revision A.03,
 M. J. Frisch, G. W. Trucks, H. B. Schlegel, G. E. Scuseria, 
 M. A. Robb, J. R. Cheeseman, G. Scalmani, V. Barone, 
 G. A. Petersson, H. Nakatsuji, X. Li, M. Caricato, A. V. Marenich, 
 J. Bloino, B. G. Janesko, R. Gomperts, B. Mennucci, H. P. Hratchian, 
 J. V. Ortiz, A. F. Izmaylov, J. L. Sonnenberg, D. Williams-Young, 
 F. Ding, F. Lipparini, F. Egidi, J. Goings, B. Peng, A. Petrone, 
 T. Henderson, D. Ranasinghe, V. G. Zakrzewski, J. Gao, N. Rega, 
 G. Zheng, W. Liang, M. Hada, M. Ehara, K. Toyota, R. Fukuda, 
 J. Hasegawa, M. Ishida, T. Nakajima, Y. Honda, O. Kitao, H. Nakai, 
 T. Vreven, K. Throssell, J. A. Montgomery, Jr., J. E. Peralta, 
 F. Ogliaro, M. J. Bearpark, J. J. Heyd, E. N. Brothers, K. N. Kudin, 
 V. N. Staroverov, T. A. Keith, R. Kobayashi, J. Normand, 
 K. Raghavachari, A. P. Rendell, J. C. Burant, S. S. Iyengar, 
 J. Tomasi, M. Cossi, J. M. Millam, M. Klene, C. Adamo, R. Cammi, 
 J. W. Ochterski, R. L. Martin, K. Morokuma, O. Farkas, 
 J. B. Foresman, and D. J. Fox, Gaussian, Inc., Wallingford CT, 2016.
 
 ******************************************
 Gaussian 16:  ES64L-G16RevA.03 25-Dec-2016
                12-Oct-2023 
 ******************************************
 %nprocshared=2
 Will use up to    2 processors via shared memory.
 %mem=2GB
 ------------------
 # ub3lyp/6-31+g(d)
 ------------------
 1/38=1,172=1/1;
 2/12=2,17=6,18=5,40=1/2;
 3/5=1,6=6,7=11,11=2,25=1,30=1,74=-5,116=2/1,2,3;
 4//1;
 5/5=2,38=5/2;
 6/7=2,8=2,9=2,10=2,28=1/1;
 99/5=1,9=1/99;
 ----------------------
 tmpdir/M2_conf_0_6.gjf
 ----------------------
 Symbolic Z-matrix:
 Charge =  0 Multiplicity = 1
 C                     0.        0.        0. 
 C                     1.3885    0.        0. 
 C                    -0.68509   0.       -1.21633 
 H                    -0.547     0.00787   0.93942 
 C                     2.09726  -0.02514  -1.21021 
 H                     2.04708  -0.03339   0.88518 
 
                          Input orientation:                          
 ---------------------------------------------------------------------
 Center     Atomic      Atomic             Coordinates (Angstroms)
 Number     Number       Type             X           Y           Z
 ---------------------------------------------------------------------
      1          6           0        0.000000    0.000000    0.000000
      2          6           0        1.388500    0.000000    0.000000
      3          6           0       -0.685090    0.000000   -1.216330
      4          1           0       -0.547000    0.007870    0.939420
      5          6           0        2.097260   -0.025140   -1.210210
      6          1           0        2.047080   -0.033390    0.885180
 ---------------------------------------------------------------------
                    Distance matrix (angstroms):
                    1          2          3          4          5
     1  C    0.000000
     2  C    1.388500   0.000000
     3  C    1.395997   2.404004   0.000000
     4  H    1.087097   2.151449   2.160183   0.000000
     5  C    2.421516   1.402705   2.782470   3.407948   0.000000
     6  H    2.230515   1.103805   3.447058   2.594975   2.096007
                    6
     6  H    0.000000
 Stoichiometry    C4H2
 Framework group  C1[X(C4H2)]
 Deg. of freedom    12
 Full point group                 C1      NOp   1
 Largest Abelian subgroup         C1      NOp   1
 Largest concise Abelian subgroup C1      NOp   1
                         Standard orientation:                         
 ---------------------------------------------------------------------
 Center     Atomic      Atomic             Coordinates (Angstroms)
 Number     Number       Type             X           Y           Z
 ---------------------------------------------------------------------
      1          6           0       -0.703176    0.491026    0.001759
      2          6           0        0.685276    0.488655   -0.009607
      3          6           0       -1.390375   -0.724113    0.000466
      4          1           0       -1.248574    1.431408    0.003697
      5          6           0        1.392094   -0.722886    0.002863
      6          1           0        1.345658    1.372505    0.023413
 ---------------------------------------------------------------------
 Rotational constants (GHZ):          22.8348130           8.2283451           6.0489809
 Standard basis: 6-31+G(d) (6D, 7F)
 There are    80 symmetry adapted cartesian basis functions of A   symmetry.
 There are    80 symmetry adapted basis functions of A   symmetry.
    80 basis functions,   136 primitive gaussians,    80 cartesian basis functions
    13 alpha electrons       13 beta electrons
       nuclear repulsion energy        77.3235678673 Hartrees.
 NAtoms=    6 NActive=    6 NUniq=    6 SFac= 1.00D+00 NAtFMM=   60 NAOKFM=F Big=F
 Integral buffers will be    131072 words long.
 Raffenetti 2 integral format.
 Two-electron integral symmetry is turned on.
 One-electron integrals computed using PRISM.
 NBasis=    80 RedAO= T EigKep=  4.31D-05  NBF=    80
 NBsUse=    80 1.00D-06 EigRej= -1.00D+00 NBFU=    80
 ExpMin= 4.38D-02 ExpMax= 3.05D+03 ExpMxC= 4.57D+02 IAcc=3 IRadAn=         5 AccDes= 0.00D+00
 Harris functional with IExCor=  402 and IRadAn=       5 diagonalized for initial guess.
 HarFok:  IExCor=  402 AccDes= 0.00D+00 IRadAn=         5 IDoV= 1 UseB2=F ITyADJ=14
 ICtDFT=  3500011 ScaDFX=  1.000000  1.000000  1.000000  1.000000
 FoFCou: FMM=F IPFlag=           0 FMFlag=      100000 FMFlg1=           0
         NFxFlg=           0 DoJE=T BraDBF=F KetDBF=T FulRan=T
         wScrn=  0.000000 ICntrl=       500 IOpCl=  0 I1Cent=   200000004 NGrid=           0
         NMat0=    1 NMatS0=      1 NMatT0=    0 NMatD0=    1 NMtDS0=    0 NMtDT0=    0
 Petite list used in FoFCou.
 Initial guess <Sx>= 0.0000 <Sy>= 0.0000 <Sz>= 0.0000 <S**2>= 0.0000 S= 0.0000
 Keep R1 and R2 ints in memory in canonical form, NReq=12310292.
 Requested convergence on RMS density matrix=1.00D-08 within 128 cycles.
 Requested convergence on MAX density matrix=1.00D-06.
 Requested convergence on             energy=1.00D-06.
 No special actions if energy rises.
 SCF Done:  E(UB3LYP) =  -153.310991041     A.U. after   14 cycles
            NFock= 14  Conv=0.35D-08     -V/T= 2.0108
 <Sx>= 0.0000 <Sy>= 0.0000 <Sz>= 0.0000 <S**2>=-0.0000 S=-0.0000
 <L.S>= 0.000000000000E+00
 Annihilation of the first spin contaminant:
 S**2 before annihilation    -0.0000,   after     0.0000

 **********************************************************************

            Population analysis using the SCF density.

 **********************************************************************

 Orbital symmetries:
 Alpha Orbitals:
       Occupied  (A) (A) (A) (A) (A) (A) (A) (A) (A) (A) (A) (A)
                 (A)
       Virtual   (A) (A) (A) (A) (A) (A) (A) (A) (A) (A) (A) (A)
                 (A) (A) (A) (A) (A) (A) (A) (A) (A) (A) (A) (A)
                 (A) (A) (A) (A) (A) (A) (A) (A) (A) (A) (A) (A)
                 (A) (A) (A) (A) (A) (A) (A) (A) (A) (A) (A) (A)
                 (A) (A) (A) (A) (A) (A) (A) (A) (A) (A) (A) (A)
                 (A) (A) (A) (A) (A) (A) (A)
 Beta  Orbitals:
       Occupied  (A) (A) (A) (A) (A) (A) (A) (A) (A) (A) (A) (A)
                 (A)
       Virtual   (A) (A) (A) (A) (A) (A) (A) (A) (A) (A) (A) (A)
                 (A) (A) (A) (A) (A) (A) (A) (A) (A) (A) (A) (A)
                 (A) (A) (A) (A) (A) (A) (A) (A) (A) (A) (A) (A)
                 (A) (A) (A) (A) (A) (A) (A) (A) (A) (A) (A) (A)
                 (A) (A) (A) (A) (A) (A) (A) (A) (A) (A) (A) (A)
                 (A) (A) (A) (A) (A) (A) (A)
 The electronic state is 1-A.
 Alpha  occ. eigenvalues --  -10.29320 -10.29143 -10.24615 -10.24509  -0.86338
 Alpha  occ. eigenvalues --   -0.73537  -0.61714  -0.51610  -0.49840  -0.37387
 Alpha  occ. eigenvalues --   -0.33405  -0.31173  -0.25422
 Alpha virt. eigenvalues --   -0.14872  -0.11434  -0.08357   0.00209   0.02676
 Alpha virt. eigenvalues --    0.04073   0.04521   0.05746   0.06634   0.08001
 Alpha virt. eigenvalues --    0.09062   0.09108   0.10618   0.11968   0.12797
 Alpha virt. eigenvalues --    0.15264   0.16433   0.17267   0.17595   0.20235
 Alpha virt. eigenvalues --    0.20883   0.25612   0.28295   0.37557   0.43244
 Alpha virt. eigenvalues --    0.57458   0.63140   0.63472   0.67469   0.69015
 Alpha virt. eigenvalues --    0.69233   0.69575   0.73004   0.73091   0.75737
 Alpha virt. eigenvalues --    0.79059   0.79819   0.89315   0.94046   1.05293
 Alpha virt. eigenvalues --    1.05752   1.14512   1.23338   1.29231   1.39393
 Alpha virt. eigenvalues --    1.47704   1.63726   1.65420   1.71595   1.72502
 Alpha virt. eigenvalues --    1.74352   1.87320   1.88031   1.99676   2.15280
 Alpha virt. eigenvalues --    2.19179   2.20206   2.24969   2.45500   2.53928
 Alpha virt. eigenvalues --    2.56161   2.76655   2.94454   4.05557   4.12836
 Alpha virt. eigenvalues --    4.20897   4.41923
  Beta  occ. eigenvalues --  -10.29320 -10.29143 -10.24615 -10.24509  -0.86338
  Beta  occ. eigenvalues --   -0.73537  -0.61714  -0.51610  -0.49840  -0.37387
  Beta  occ. eigenvalues --   -0.33405  -0.31173  -0.25422
  Beta virt. eigenvalues --   -0.14872  -0.11434  -0.08357   0.00209   0.02676
  Beta virt. eigenvalues --    0.04073   0.04521   0.05746   0.06634   0.08001
  Beta virt. eigenvalues --    0.09062   0.09108   0.10618   0.11968   0.12797
  Beta virt. eigenvalues --    0.15264   0.16433   0.17267   0.17595   0.20235
  Beta virt. eigenvalues --    0.20883   0.25612   0.28295   0.37557   0.43244
  Beta virt. eigenvalues --    0.57458   0.63140   0.63472   0.67469   0.69015
  Beta virt. eigenvalues --    0.69233   0.69575   0.73004   0.73091   0.75737
  Beta virt. eigenvalues --    0.79059   0.79819   0.89315   0.94046   1.05293
  Beta virt. eigenvalues --    1.05752   1.14512   1.23338   1.29231   1.39393
  Beta virt. eigenvalues --    1.47704   1.63726   1.65420   1.71595   1.72502
  Beta virt. eigenvalues --    1.74352   1.87320   1.88031   1.99676   2.15280
  Beta virt. eigenvalues --    2.19179   2.20206   2.24969   2.45500   2.53928
  Beta virt. eigenvalues --    2.56161   2.76655   2.94454   4.05557   4.12836
  Beta virt. eigenvalues --    4.20897   4.41923
          Condensed to atoms (all electrons):
               1          2          3          4          5          6
     1  C    7.360814  -0.856981  -1.750152   0.164785   0.888806   0.073365
     2  C   -0.856981   7.342784   0.905707   0.065349  -1.742094   0.150450
     3  C   -1.750152   0.905707   7.816952   0.128114  -0.677090  -0.048604
     4  H    0.164785   0.065349   0.128114   0.449804  -0.050278  -0.007180
     5  C    0.888806  -1.742094  -0.677090  -0.050278   7.828452   0.132363
     6  H    0.073365   0.150450  -0.048604  -0.007180   0.132363   0.448070
          Atomic-Atomic Spin Densities.
               1          2          3          4          5          6
     1  C    0.000000  -0.000000  -0.000000  -0.000000   0.000000   0.000000
     2  C   -0.000000   0.000000   0.000000   0.000000  -0.000000  -0.000000
     3  C   -0.000000   0.000000   0.000000   0.000000  -0.000000  -0.000000
     4  H   -0.000000   0.000000   0.000000   0.000000  -0.000000  -0.000000
     5  C    0.000000  -0.000000  -0.000000  -0.000000   0.000000   0.000000
     6  H    0.000000  -0.000000  -0.000000  -0.000000   0.000000  -0.000000
 Mulliken charges and spin densities:
               1          2
     1  C    0.119363   0.000000
     2  C    0.134784  -0.000000
     3  C   -0.374928   0.000000
     4  H    0.249404  -0.000000
     5  C   -0.380159   0.000000
     6  H    0.251535  -0.000000
 Sum of Mulliken charges =  -0.00000   0.00000
 Mulliken charges and spin densities with hydrogens summed into heavy atoms:
               1          2
     1  C    0.368767   0.000000
     2  C    0.386319  -0.000000
     3  C   -0.374928   0.000000
     5  C   -0.380159   0.000000
 Electronic spatial extent (au):  <R**2>=            219.6752
 Charge=             -0.0000 electrons
 Dipole moment (field-independent basis, Debye):
    X=             -0.0182    Y=              3.6765    Z=              0.0311  Tot=              3.6767
 Quadrupole moment (field-independent basis, Debye-Ang):
   XX=            -25.6637   YY=            -24.4985   ZZ=            -26.8821
   XY=              0.1252   XZ=              0.0520   YZ=              0.0678
 Traceless Quadrupole moment (field-independent basis, Debye-Ang):
   XX=              0.0177   YY=              1.1829   ZZ=             -1.2007
   XY=              0.1252   XZ=              0.0520   YZ=              0.0678
 Octapole moment (field-independent basis, Debye-Ang**2):
  XXX=             -0.2910  YYY=             16.2067  ZZZ=              0.0417  XYY=             -0.0537
  XXY=             15.0742  XXZ=              0.1446  XZZ=             -0.0969  YZZ=              2.4904
  YYZ=              0.0649  XYZ=              0.0659
 Hexadecapole moment (field-independent basis, Debye-Ang**3):
 XXXX=           -219.8109 YYYY=           -103.1478 ZZZZ=            -36.5581 XXXY=              1.4099
 XXXZ=              0.1876 YYYX=             -0.3279 YYYZ=              0.1893 ZZZX=              0.0905
 ZZZY=              0.0687 XXYY=            -62.1203 XXZZ=            -47.8351 YYZZ=            -24.5418
 XXYZ=              0.1277 YYXZ=              0.1028 ZZXY=              0.0001
 N-N= 7.732356786730D+01 E-N=-5.089091527394D+02  KE= 1.516681287763D+02
                          Isotropic Fermi Contact Couplings
        Atom                 a.u.       MegaHertz       Gauss      10(-4) cm-1
     1  C(13)              0.00000       0.00000       0.00000       0.00000
     2  C(13)             -0.00000      -0.00000      -0.00000      -0.00000
     3  C(13)              0.00000       0.00000       0.00000       0.00000
     4  H(1)              -0.00000      -0.00000      -0.00000      -0.00000
     5  C(13)             -0.00000      -0.00000      -0.00000      -0.00000
     6  H(1)              -0.00000      -0.00000      -0.00000      -0.00000
 --------------------------------------------------------
       Center         ----  Spin Dipole Couplings  ----
                      3XX-RR        3YY-RR        3ZZ-RR
 --------------------------------------------------------
     1   Atom        0.000000     -0.000000     -0.000000
     2   Atom        0.000000      0.000000     -0.000000
     3   Atom       -0.000000      0.000000      0.000000
     4   Atom        0.000000      0.000000     -0.000000
     5   Atom       -0.000000      0.000000      0.000000
     6   Atom       -0.000000      0.000000     -0.000000
 --------------------------------------------------------
                        XY            XZ            YZ
 --------------------------------------------------------
     1   Atom        0.000000     -0.000000     -0.000000
     2   Atom       -0.000000      0.000000      0.000000
     3   Atom       -0.000000      0.000000     -0.000000
     4   Atom        0.000000      0.000000     -0.000000
     5   Atom        0.000000     -0.000000      0.000000
     6   Atom        0.000000      0.000000      0.000000
 --------------------------------------------------------


 ---------------------------------------------------------------------------------
              Anisotropic Spin Dipole Couplings in Principal Axis System
 ---------------------------------------------------------------------------------

       Atom             a.u.   MegaHertz   Gauss  10(-4) cm-1        Axes

              Baa    -0.0000    -0.000    -0.000    -0.000  0.1156 -0.1088  0.9873
     1 C(13)  Bbb    -0.0000    -0.000    -0.000    -0.000 -0.5335  0.8317  0.1541
              Bcc     0.0000     0.000     0.000     0.000  0.8379  0.5445 -0.0381
 
              Baa    -0.0000    -0.000    -0.000    -0.000  0.6449  0.4763 -0.5977
     2 C(13)  Bbb    -0.0000    -0.000    -0.000    -0.000  0.4062  0.4488  0.7960
              Bcc     0.0000     0.000     0.000     0.000 -0.6474  0.7561 -0.0959
 
              Baa    -0.0000    -0.000    -0.000    -0.000  0.7966  0.5670 -0.2096
     3 C(13)  Bbb     0.0000     0.000     0.000     0.000 -0.2224  0.5973  0.7705
              Bcc     0.0000     0.000     0.000     0.000  0.5621 -0.5672  0.6020
 
              Baa    -0.0000    -0.000    -0.000    -0.000 -0.0483  0.1369  0.9894
     4 H(1)   Bbb    -0.0000    -0.000    -0.000    -0.000 -0.4234  0.8944 -0.1444
              Bcc     0.0000     0.000     0.000     0.000  0.9047  0.4258 -0.0148
 
              Baa    -0.0000    -0.000    -0.000    -0.000  0.9570 -0.2896  0.0176
     5 C(13)  Bbb     0.0000     0.000     0.000     0.000 -0.0179  0.0016  0.9998
              Bcc     0.0000     0.000     0.000     0.000  0.2896  0.9571  0.0037
 
              Baa    -0.0000    -0.000    -0.000    -0.000 -0.0845  0.0286  0.9960
     6 H(1)   Bbb    -0.0000    -0.000    -0.000    -0.000  0.8749 -0.4762  0.0879
              Bcc     0.0000     0.000     0.000     0.000  0.4769  0.8788  0.0153
 

 ---------------------------------------------------------------------------------

 1\1\GINC-NODE32\SP\UB3LYP\6-31+G(d)\C4H2\YANZ\12-Oct-2023\0\\# ub3lyp/
 6-31+g(d)\\tmpdir/M2_conf_0_6.gjf\\0,1\C,0,0.,0.,0.\C,0,1.3885,0.,0.\C
 ,0,-0.68509,0.,-1.21633\H,0,-0.547,0.00787,0.93942\C,0,2.09726,-0.0251
 4,-1.21021\H,0,2.04708,-0.03339,0.88518\\Version=ES64L-G16RevA.03\Stat
 e=1-A\HF=-153.310991\S2=0.\S2-1=0.\S2A=0.\RMSD=3.489e-09\Dipole=-0.009
 7341,-0.0039527,1.4464899\Quadrupole=0.0121792,-0.892502,0.8803229,-0.
 0454809,0.0914419,-0.0411724\PG=C01 [X(C4H2)]\\@


 DEMOCRATS BUY MOST OF THE BOOKS THAT HAVE BEEN
 BANNED; REPUBLICANS FORM CENSORSHIP COMMITTEES AND
 READ THEM AS A GROUP.
 Job cpu time:       0 days  0 hours  0 minutes 31.1 seconds.
 Elapsed time:       0 days  0 hours  0 minutes 15.9 seconds.
 File lengths (MBytes):  RWF=     10 Int=      0 D2E=      0 Chk=      2 Scr=      1
 Normal termination of Gaussian 16 at Thu Oct 12 15:13:15 2023.
