 Entering Gaussian System, Link 0=g16
 Initial command:
 /share/apps/gaussian/g16/l1.exe "/tmp/58286.mgr/Gau-31181.inp" -scrdir="/tmp/58286.mgr/"
 Entering Link 1 = /share/apps/gaussian/g16/l1.exe PID=     31182.
  
 Copyright (c) 1988,1990,1992,1993,1995,1998,2003,2009,2016,
            Gaussian, Inc.  All Rights Reserved.
  
 This is part of the Gaussian(R) 16 program.  It is based on
 the Gaussian(R) 09 system (copyright 2009, Gaussian, Inc.),
 the Gaussian(R) 03 system (copyright 2003, Gaussian, Inc.),
 the Gaussian(R) 98 system (copyright 1998, Gaussian, Inc.),
 the Gaussian(R) 94 system (copyright 1995, Gaussian, Inc.),
 the Gaussian 92(TM) system (copyright 1992, Gaussian, Inc.),
 the Gaussian 90(TM) system (copyright 1990, Gaussian, Inc.),
 the Gaussian 88(TM) system (copyright 1988, Gaussian, Inc.),
 the Gaussian 86(TM) system (copyright 1986, Carnegie Mellon
 University), and the Gaussian 82(TM) system (copyright 1983,
 Carnegie Mellon University). Gaussian is a federally registered
 trademark of Gaussian, Inc.
  
 This software contains proprietary and confidential information,
 including trade secrets, belonging to Gaussian, Inc.
  
 This software is provided under written license and may be
 used, copied, transmitted, or stored only in accord with that
 written license.
  
 The following legend is applicable only to US Government
 contracts under FAR:
  
                    RESTRICTED RIGHTS LEGEND
  
 Use, reproduction and disclosure by the US Government is
 subject to restrictions as set forth in subparagraphs (a)
 and (c) of the Commercial Computer Software - Restricted
 Rights clause in FAR 52.227-19.
  
 Gaussian, Inc.
 340 Quinnipiac St., Bldg. 40, Wallingford CT 06492
  
  
 ---------------------------------------------------------------
 Warning -- This program may not be used in any manner that
 competes with the business of Gaussian, Inc. or will provide
 assistance to any competitor of Gaussian, Inc.  The licensee
 of this program is prohibited from giving any competitor of
 Gaussian, Inc. access to this program.  By using this program,
 the user acknowledges that Gaussian, Inc. is engaged in the
 business of creating and licensing software in the field of
 computational chemistry and represents and warrants to the
 licensee that it is not a competitor of Gaussian, Inc. and that
 it will not use this program in any manner prohibited above.
 ---------------------------------------------------------------
  

 Cite this work as:
 Gaussian 16, Revision A.03,
 M. J. Frisch, G. W. Trucks, H. B. Schlegel, G. E. Scuseria, 
 M. A. Robb, J. R. Cheeseman, G. Scalmani, V. Barone, 
 G. A. Petersson, H. Nakatsuji, X. Li, M. Caricato, A. V. Marenich, 
 J. Bloino, B. G. Janesko, R. Gomperts, B. Mennucci, H. P. Hratchian, 
 J. V. Ortiz, A. F. Izmaylov, J. L. Sonnenberg, D. Williams-Young, 
 F. Ding, F. Lipparini, F. Egidi, J. Goings, B. Peng, A. Petrone, 
 T. Henderson, D. Ranasinghe, V. G. Zakrzewski, J. Gao, N. Rega, 
 G. Zheng, W. Liang, M. Hada, M. Ehara, K. Toyota, R. Fukuda, 
 J. Hasegawa, M. Ishida, T. Nakajima, Y. Honda, O. Kitao, H. Nakai, 
 T. Vreven, K. Throssell, J. A. Montgomery, Jr., J. E. Peralta, 
 F. Ogliaro, M. J. Bearpark, J. J. Heyd, E. N. Brothers, K. N. Kudin, 
 V. N. Staroverov, T. A. Keith, R. Kobayashi, J. Normand, 
 K. Raghavachari, A. P. Rendell, J. C. Burant, S. S. Iyengar, 
 J. Tomasi, M. Cossi, J. M. Millam, M. Klene, C. Adamo, R. Cammi, 
 J. W. Ochterski, R. L. Martin, K. Morokuma, O. Farkas, 
 J. B. Foresman, and D. J. Fox, Gaussian, Inc., Wallingford CT, 2016.
 
 ******************************************
 Gaussian 16:  ES64L-G16RevA.03 25-Dec-2016
                12-Oct-2023 
 ******************************************
 %nprocshared=2
 Will use up to    2 processors via shared memory.
 %mem=2GB
 ------------------
 # ub3lyp/6-31+g(d)
 ------------------
 1/38=1,172=1/1;
 2/12=2,17=6,18=5,40=1/2;
 3/5=1,6=6,7=11,11=2,25=1,30=1,74=-5,116=2/1,2,3;
 4//1;
 5/5=2,38=5/2;
 6/7=2,8=2,9=2,10=2,28=1/1;
 99/5=1,9=1/99;
 -----------------------
 tmpdir/M2_conf_0_48.gjf
 -----------------------
 Symbolic Z-matrix:
 Charge =  0 Multiplicity = 3
 C                     0.        0.        0. 
 C                     1.4795    0.        0. 
 H                    -0.38689   0.       -1.03698 
 H                    -0.53435  -0.64411   0.70022 
 H                     1.87214  -0.30787  -0.98785 
 H                     2.01743   0.80801   0.4967 
 
                          Input orientation:                          
 ---------------------------------------------------------------------
 Center     Atomic      Atomic             Coordinates (Angstroms)
 Number     Number       Type             X           Y           Z
 ---------------------------------------------------------------------
      1          6           0        0.000000    0.000000    0.000000
      2          6           0        1.479500    0.000000    0.000000
      3          1           0       -0.386890    0.000000   -1.036980
      4          1           0       -0.534350   -0.644110    0.700220
      5          1           0        1.872140   -0.307870   -0.987850
      6          1           0        2.017430    0.808010    0.496700
 ---------------------------------------------------------------------
                    Distance matrix (angstroms):
                    1          2          3          4          5
     1  C    0.000000
     2  C    1.479500   0.000000
     3  H    1.106802   2.135120   0.000000
     4  H    1.091199   2.227280   1.858625   0.000000
     5  H    2.139051   1.106706   2.280442   2.958688   0.000000
     6  H    2.229263   1.090394   2.964087   2.943069   1.862844
                    6
     6  H    0.000000
 Stoichiometry    C2H4(3)
 Framework group  C1[X(C2H4)]
 Deg. of freedom    12
 Full point group                 C1      NOp   1
 Largest Abelian subgroup         C1      NOp   1
 Largest concise Abelian subgroup C1      NOp   1
                         Standard orientation:                         
 ---------------------------------------------------------------------
 Center     Atomic      Atomic             Coordinates (Angstroms)
 Number     Number       Type             X           Y           Z
 ---------------------------------------------------------------------
      1          6           0        0.733648   -0.053958   -0.098496
      2          6           0       -0.733011   -0.051058    0.095993
      3          1           0        1.098888    0.970718   -0.302579
      4          1           0        1.359626   -0.651588    0.566113
      5          1           0       -1.099557    0.972372    0.303432
      6          1           0       -1.362779   -0.661402   -0.551951
 ---------------------------------------------------------------------
 Rotational constants (GHZ):         132.0977844          25.1196918          23.0343221
 Standard basis: 6-31+G(d) (6D, 7F)
 There are    46 symmetry adapted cartesian basis functions of A   symmetry.
 There are    46 symmetry adapted basis functions of A   symmetry.
    46 basis functions,    80 primitive gaussians,    46 cartesian basis functions
     9 alpha electrons        7 beta electrons
       nuclear repulsion energy        31.5946119604 Hartrees.
 NAtoms=    6 NActive=    6 NUniq=    6 SFac= 1.00D+00 NAtFMM=   60 NAOKFM=F Big=F
 Integral buffers will be    131072 words long.
 Raffenetti 2 integral format.
 Two-electron integral symmetry is turned on.
 One-electron integrals computed using PRISM.
 NBasis=    46 RedAO= T EigKep=  3.88D-04  NBF=    46
 NBsUse=    46 1.00D-06 EigRej= -1.00D+00 NBFU=    46
 ExpMin= 4.38D-02 ExpMax= 3.05D+03 ExpMxC= 4.57D+02 IAcc=3 IRadAn=         5 AccDes= 0.00D+00
 Harris functional with IExCor=  402 and IRadAn=       5 diagonalized for initial guess.
 HarFok:  IExCor=  402 AccDes= 0.00D+00 IRadAn=         5 IDoV= 1 UseB2=F ITyADJ=14
 ICtDFT=  3500011 ScaDFX=  1.000000  1.000000  1.000000  1.000000
 FoFCou: FMM=F IPFlag=           0 FMFlag=      100000 FMFlg1=           0
         NFxFlg=           0 DoJE=T BraDBF=F KetDBF=T FulRan=T
         wScrn=  0.000000 ICntrl=       500 IOpCl=  0 I1Cent=   200000004 NGrid=           0
         NMat0=    1 NMatS0=      1 NMatT0=    0 NMatD0=    1 NMtDS0=    0 NMtDT0=    0
 Petite list used in FoFCou.
 Initial guess <Sx>= 0.0000 <Sy>= 0.0000 <Sz>= 1.0000 <S**2>= 2.0000 S= 1.0000
 Keep R1 and R2 ints in memory in canonical form, NReq=2904686.
 Requested convergence on RMS density matrix=1.00D-08 within 128 cycles.
 Requested convergence on MAX density matrix=1.00D-06.
 Requested convergence on             energy=1.00D-06.
 No special actions if energy rises.
 SCF Done:  E(UB3LYP) =  -78.4733250420     A.U. after   12 cycles
            NFock= 12  Conv=0.21D-08     -V/T= 2.0105
 <Sx>= 0.0000 <Sy>= 0.0000 <Sz>= 1.0000 <S**2>= 2.0038 S= 1.0013
 <L.S>= 0.000000000000E+00
 Annihilation of the first spin contaminant:
 S**2 before annihilation     2.0038,   after     2.0000

 **********************************************************************

            Population analysis using the SCF density.

 **********************************************************************

 Orbital symmetries:
 Alpha Orbitals:
       Occupied  (A) (A) (A) (A) (A) (A) (A) (A) (A)
       Virtual   (A) (A) (A) (A) (A) (A) (A) (A) (A) (A) (A) (A)
                 (A) (A) (A) (A) (A) (A) (A) (A) (A) (A) (A) (A)
                 (A) (A) (A) (A) (A) (A) (A) (A) (A) (A) (A) (A)
                 (A)
 Beta  Orbitals:
       Occupied  (A) (A) (A) (A) (A) (A) (A)
       Virtual   (A) (A) (A) (A) (A) (A) (A) (A) (A) (A) (A) (A)
                 (A) (A) (A) (A) (A) (A) (A) (A) (A) (A) (A) (A)
                 (A) (A) (A) (A) (A) (A) (A) (A) (A) (A) (A) (A)
                 (A) (A) (A)
 The electronic state is 3-A.
 Alpha  occ. eigenvalues --  -10.21276 -10.21233  -0.76761  -0.60651  -0.46139
 Alpha  occ. eigenvalues --   -0.41313  -0.40396  -0.27616  -0.19079
 Alpha virt. eigenvalues --    0.02045   0.03111   0.05099   0.06008   0.08471
 Alpha virt. eigenvalues --    0.09171   0.10045   0.15092   0.17324   0.19480
 Alpha virt. eigenvalues --    0.24722   0.26314   0.28412   0.61312   0.64881
 Alpha virt. eigenvalues --    0.64953   0.68303   0.69621   0.73928   0.85247
 Alpha virt. eigenvalues --    0.89015   0.94639   0.99414   0.99944   1.12880
 Alpha virt. eigenvalues --    1.47682   1.49522   1.84321   1.89904   1.98947
 Alpha virt. eigenvalues --    2.04448   2.06829   2.34761   2.38121   2.61010
 Alpha virt. eigenvalues --    4.05610   4.24632
  Beta  occ. eigenvalues --  -10.19911 -10.19869  -0.72560  -0.57049  -0.44128
  Beta  occ. eigenvalues --   -0.38944  -0.38592
  Beta virt. eigenvalues --   -0.11663  -0.03321   0.02535   0.03412   0.05382
  Beta virt. eigenvalues --    0.06760   0.08519   0.09999   0.12038   0.15696
  Beta virt. eigenvalues --    0.18906   0.21402   0.26086   0.28079   0.31053
  Beta virt. eigenvalues --    0.62520   0.67592   0.69131   0.71775   0.74830
  Beta virt. eigenvalues --    0.76064   0.87323   0.90124   0.96634   1.01303
  Beta virt. eigenvalues --    1.01681   1.16003   1.53159   1.55088   1.92178
  Beta virt. eigenvalues --    1.96348   2.03944   2.06463   2.12308   2.39570
  Beta virt. eigenvalues --    2.40729   2.64000   4.09111   4.28393
          Condensed to atoms (all electrons):
               1          2          3          4          5          6
     1  C    5.507808   0.219955   0.377962   0.377829  -0.046701  -0.052683
     2  C    0.219955   5.507740  -0.047857  -0.053697   0.377268   0.378081
     3  H    0.377962  -0.047857   0.521230  -0.033477  -0.005605   0.002618
     4  H    0.377829  -0.053697  -0.033477   0.507846   0.002578   0.001600
     5  H   -0.046701   0.377268  -0.005605   0.002578   0.519767  -0.032884
     6  H   -0.052683   0.378081   0.002618   0.001600  -0.032884   0.505631
          Atomic-Atomic Spin Densities.
               1          2          3          4          5          6
     1  C    1.281748  -0.227498   0.023576  -0.004236  -0.032676  -0.023075
     2  C   -0.227498   1.284365  -0.032506  -0.023262   0.023491  -0.003488
     3  H    0.023576  -0.032506   0.009797  -0.008032  -0.002227  -0.000076
     4  H   -0.004236  -0.023262  -0.008032   0.025152  -0.000104   0.001533
     5  H   -0.032676   0.023491  -0.002227  -0.000104   0.009765  -0.008024
     6  H   -0.023075  -0.003488  -0.000076   0.001533  -0.008024   0.022384
 Mulliken charges and spin densities:
               1          2
     1  C   -0.384171   1.017839
     2  C   -0.381492   1.021102
     3  H    0.185128  -0.009467
     4  H    0.197321  -0.008950
     5  H    0.185577  -0.009776
     6  H    0.197636  -0.010748
 Sum of Mulliken charges =   0.00000   2.00000
 Mulliken charges and spin densities with hydrogens summed into heavy atoms:
               1          2
     1  C   -0.001721   0.999422
     2  C    0.001721   1.000578
 Electronic spatial extent (au):  <R**2>=             90.0249
 Charge=             -0.0000 electrons
 Dipole moment (field-independent basis, Debye):
    X=             -0.0051    Y=              0.5577    Z=              0.0104  Tot=              0.5578
 Quadrupole moment (field-independent basis, Debye-Ang):
   XX=            -14.2147   YY=            -13.2075   ZZ=            -15.4645
   XY=              0.0152   XZ=              1.4006   YZ=              0.0033
 Traceless Quadrupole moment (field-independent basis, Debye-Ang):
   XX=              0.0808   YY=              1.0881   ZZ=             -1.1689
   XY=              0.0152   XZ=              1.4006   YZ=              0.0033
 Octapole moment (field-independent basis, Debye-Ang**2):
  XXX=             -0.0371  YYY=              1.9469  ZZZ=              0.0211  XYY=             -0.0313
  XXY=              0.1935  XXZ=              0.0252  XZZ=              0.0204  YZZ=              0.1536
  YYZ=              0.0064  XYZ=             -1.5641
 Hexadecapole moment (field-independent basis, Debye-Ang**3):
 XXXX=            -84.4276 YYYY=            -27.9439 ZZZZ=            -25.9845 XXXY=              0.0550
 XXXZ=              4.4311 YYYX=              0.0380 YYYZ=              0.0123 ZZZX=              3.1663
 ZZZY=             -0.0073 XXYY=            -17.2875 XXZZ=            -19.6651 YYZZ=             -8.9930
 XXYZ=              0.0080 YYXZ=              1.0083 ZZXY=              0.0020
 N-N= 3.159461196035D+01 E-N=-2.442153467256D+02  KE= 7.766049168129D+01
                          Isotropic Fermi Contact Couplings
        Atom                 a.u.       MegaHertz       Gauss      10(-4) cm-1
     1  C(13)              0.17961     100.96078      36.02532      33.67689
     2  C(13)              0.17317      97.34011      34.73337      32.46917
     3  H(1)               0.00820      18.33585       6.54269       6.11618
     4  H(1)               0.00843      18.82996       6.71900       6.28100
     5  H(1)               0.00795      17.77721       6.34335       5.92984
     6  H(1)               0.00749      16.72995       5.96966       5.58051
 --------------------------------------------------------
       Center         ----  Spin Dipole Couplings  ----
                      3XX-RR        3YY-RR        3ZZ-RR
 --------------------------------------------------------
     1   Atom       -0.472802     -0.153475      0.626277
     2   Atom       -0.476576     -0.164782      0.641357
     3   Atom       -0.037379      0.056314     -0.018935
     4   Atom       -0.001902     -0.014972      0.016875
     5   Atom       -0.037922      0.056225     -0.018302
     6   Atom       -0.001606     -0.013713      0.015319
 --------------------------------------------------------
                        XY            XZ            YZ
 --------------------------------------------------------
     1   Atom       -0.082274     -0.171923      0.639554
     2   Atom        0.074974     -0.163306     -0.636062
     3   Atom        0.048458     -0.022551     -0.014910
     4   Atom       -0.054720      0.044713     -0.022057
     5   Atom       -0.048708     -0.022397      0.015328
     6   Atom        0.055904      0.044180      0.022032
 --------------------------------------------------------


 ---------------------------------------------------------------------------------
              Anisotropic Spin Dipole Couplings in Principal Axis System
 ---------------------------------------------------------------------------------

       Atom             a.u.   MegaHertz   Gauss  10(-4) cm-1        Axes

              Baa    -0.5195   -69.707   -24.873   -23.252 -0.4810  0.7328 -0.4812
     1 C(13)  Bbb    -0.4904   -65.801   -23.480   -21.949  0.8674  0.4775 -0.1399
              Bcc     1.0098   135.508    48.353    45.201 -0.1272  0.4847  0.8653
 
              Baa    -0.5218   -70.022   -24.985   -23.357  0.4764  0.7416  0.4724
     2 C(13)  Bbb    -0.4911   -65.897   -23.514   -21.981  0.8711 -0.4711 -0.1390
              Bcc     1.0129   135.918    48.499    45.337 -0.1195 -0.4777  0.8704
 
              Baa    -0.0634   -33.826   -12.070   -11.283  0.8848 -0.3154  0.3430
     3 H(1)   Bbb    -0.0186    -9.915    -3.538    -3.307 -0.2349  0.3337  0.9129
              Bcc     0.0820    43.740    15.608    14.590  0.4024  0.8883 -0.2212
 
              Baa    -0.0663   -35.384   -12.626   -11.803  0.7124  0.6712 -0.2049
     4 H(1)   Bbb    -0.0162    -8.651    -3.087    -2.886 -0.3000  0.5553  0.7756
              Bcc     0.0825    44.035    15.713    14.689  0.6344 -0.4911  0.5970
 
              Baa    -0.0637   -33.998   -12.131   -11.341  0.8884  0.3185  0.3306
     5 H(1)   Bbb    -0.0184    -9.843    -3.512    -3.283 -0.2218 -0.3328  0.9166
              Bcc     0.0822    43.842    15.644    14.624 -0.4020  0.8876  0.2250
 
              Baa    -0.0667   -35.562   -12.689   -11.862  0.7144 -0.6690 -0.2052
     6 H(1)   Bbb    -0.0161    -8.593    -3.066    -2.866 -0.2865 -0.5472  0.7864
              Bcc     0.0828    44.155    15.756    14.729  0.6384  0.5030  0.5826
 

 ---------------------------------------------------------------------------------

 1\1\GINC-NODE32\SP\UB3LYP\6-31+G(d)\C2H4(3)\YANZ\12-Oct-2023\0\\# ub3l
 yp/6-31+g(d)\\tmpdir/M2_conf_0_48.gjf\\0,3\C,0,0.,0.,0.\C,0,1.4795,0.,
 0.\H,0,-0.38689,0.,-1.03698\H,0,-0.53435,-0.64411,0.70022\H,0,1.87214,
 -0.30787,-0.98785\H,0,2.01743,0.80801,0.4967\\Version=ES64L-G16RevA.03
 \State=3-A\HF=-78.473325\S2=2.003785\S2-1=0.\S2A=2.000007\RMSD=2.147e-
 09\Dipole=0.002968,-0.0363894,-0.2163971\Quadrupole=-0.2274046,-0.5490
 077,0.7764123,1.1151695,-0.1588416,0.2105019\PG=C01 [X(C2H4)]\\@


 In the beginning the Universe was created.
 This has made a lot of people very angry
 and been widely regarded as a bad move.
                               -D.Adams
 Job cpu time:       0 days  0 hours  0 minutes 14.9 seconds.
 Elapsed time:       0 days  0 hours  0 minutes  7.6 seconds.
 File lengths (MBytes):  RWF=      6 Int=      0 D2E=      0 Chk=      1 Scr=      1
 Normal termination of Gaussian 16 at Thu Oct 12 15:14:07 2023.
