 Entering Gaussian System, Link 0=g16
 Initial command:
 /share/apps/gaussian/g16/l1.exe "/tmp/58286.mgr/Gau-30420.inp" -scrdir="/tmp/58286.mgr/"
 Entering Link 1 = /share/apps/gaussian/g16/l1.exe PID=     30421.
  
 Copyright (c) 1988,1990,1992,1993,1995,1998,2003,2009,2016,
            Gaussian, Inc.  All Rights Reserved.
  
 This is part of the Gaussian(R) 16 program.  It is based on
 the Gaussian(R) 09 system (copyright 2009, Gaussian, Inc.),
 the Gaussian(R) 03 system (copyright 2003, Gaussian, Inc.),
 the Gaussian(R) 98 system (copyright 1998, Gaussian, Inc.),
 the Gaussian(R) 94 system (copyright 1995, Gaussian, Inc.),
 the Gaussian 92(TM) system (copyright 1992, Gaussian, Inc.),
 the Gaussian 90(TM) system (copyright 1990, Gaussian, Inc.),
 the Gaussian 88(TM) system (copyright 1988, Gaussian, Inc.),
 the Gaussian 86(TM) system (copyright 1986, Carnegie Mellon
 University), and the Gaussian 82(TM) system (copyright 1983,
 Carnegie Mellon University). Gaussian is a federally registered
 trademark of Gaussian, Inc.
  
 This software contains proprietary and confidential information,
 including trade secrets, belonging to Gaussian, Inc.
  
 This software is provided under written license and may be
 used, copied, transmitted, or stored only in accord with that
 written license.
  
 The following legend is applicable only to US Government
 contracts under FAR:
  
                    RESTRICTED RIGHTS LEGEND
  
 Use, reproduction and disclosure by the US Government is
 subject to restrictions as set forth in subparagraphs (a)
 and (c) of the Commercial Computer Software - Restricted
 Rights clause in FAR 52.227-19.
  
 Gaussian, Inc.
 340 Quinnipiac St., Bldg. 40, Wallingford CT 06492
  
  
 ---------------------------------------------------------------
 Warning -- This program may not be used in any manner that
 competes with the business of Gaussian, Inc. or will provide
 assistance to any competitor of Gaussian, Inc.  The licensee
 of this program is prohibited from giving any competitor of
 Gaussian, Inc. access to this program.  By using this program,
 the user acknowledges that Gaussian, Inc. is engaged in the
 business of creating and licensing software in the field of
 computational chemistry and represents and warrants to the
 licensee that it is not a competitor of Gaussian, Inc. and that
 it will not use this program in any manner prohibited above.
 ---------------------------------------------------------------
  

 Cite this work as:
 Gaussian 16, Revision A.03,
 M. J. Frisch, G. W. Trucks, H. B. Schlegel, G. E. Scuseria, 
 M. A. Robb, J. R. Cheeseman, G. Scalmani, V. Barone, 
 G. A. Petersson, H. Nakatsuji, X. Li, M. Caricato, A. V. Marenich, 
 J. Bloino, B. G. Janesko, R. Gomperts, B. Mennucci, H. P. Hratchian, 
 J. V. Ortiz, A. F. Izmaylov, J. L. Sonnenberg, D. Williams-Young, 
 F. Ding, F. Lipparini, F. Egidi, J. Goings, B. Peng, A. Petrone, 
 T. Henderson, D. Ranasinghe, V. G. Zakrzewski, J. Gao, N. Rega, 
 G. Zheng, W. Liang, M. Hada, M. Ehara, K. Toyota, R. Fukuda, 
 J. Hasegawa, M. Ishida, T. Nakajima, Y. Honda, O. Kitao, H. Nakai, 
 T. Vreven, K. Throssell, J. A. Montgomery, Jr., J. E. Peralta, 
 F. Ogliaro, M. J. Bearpark, J. J. Heyd, E. N. Brothers, K. N. Kudin, 
 V. N. Staroverov, T. A. Keith, R. Kobayashi, J. Normand, 
 K. Raghavachari, A. P. Rendell, J. C. Burant, S. S. Iyengar, 
 J. Tomasi, M. Cossi, J. M. Millam, M. Klene, C. Adamo, R. Cammi, 
 J. W. Ochterski, R. L. Martin, K. Morokuma, O. Farkas, 
 J. B. Foresman, and D. J. Fox, Gaussian, Inc., Wallingford CT, 2016.
 
 ******************************************
 Gaussian 16:  ES64L-G16RevA.03 25-Dec-2016
                12-Oct-2023 
 ******************************************
 %nprocshared=2
 Will use up to    2 processors via shared memory.
 %mem=2GB
 ------------------
 # ub3lyp/6-31+g(d)
 ------------------
 1/38=1,172=1/1;
 2/12=2,17=6,18=5,40=1/2;
 3/5=1,6=6,7=11,11=2,25=1,30=1,74=-5,116=2/1,2,3;
 4//1;
 5/5=2,38=5/2;
 6/7=2,8=2,9=2,10=2,28=1/1;
 99/5=1,9=1/99;
 --------------------
 tmpdir/M2_ref_59.gjf
 --------------------
 Symbolic Z-matrix:
 Charge =  0 Multiplicity = 1
 C                    -1.07241   1.28244   0.02074 
 C                    -1.87263   0.65397  -1.11889 
 C                    -1.85835  -0.68255  -1.13486 
 H                    -0.05694   0.86562  -0.0065 
 H                    -1.60206   0.84923   0.89071 
 H                    -1.08735   2.3742    0.0001 
 H                    -2.45157   1.26792  -1.80134 
 H                    -1.26096  -1.14285  -0.33416 
 H                    -2.40083  -1.28897  -1.85186 
 
                          Input orientation:                          
 ---------------------------------------------------------------------
 Center     Atomic      Atomic             Coordinates (Angstroms)
 Number     Number       Type             X           Y           Z
 ---------------------------------------------------------------------
      1          6           0       -1.072408    1.282439    0.020744
      2          6           0       -1.872634    0.653966   -1.118894
      3          6           0       -1.858347   -0.682552   -1.134860
      4          1           0       -0.056939    0.865624   -0.006502
      5          1           0       -1.602059    0.849227    0.890705
      6          1           0       -1.087345    2.374200    0.000102
      7          1           0       -2.451571    1.267922   -1.801344
      8          1           0       -1.260960   -1.142846   -0.334163
      9          1           0       -2.400827   -1.288970   -1.851861
 ---------------------------------------------------------------------
                    Distance matrix (angstroms):
                    1          2          3          4          5
     1  C    0.000000
     2  C    1.527781   0.000000
     3  C    2.411289   1.336690   0.000000
     4  H    1.098024   2.139852   2.629660   0.000000
     5  H    1.106814   2.037113   2.552440   1.786799   0.000000
     6  H    1.092058   2.197279   3.350570   1.826905   1.839470
     7  H    2.285236   1.085287   2.144870   3.019530   2.853788
     8  H    2.458358   2.053895   1.099935   2.364526   2.363262
     9  H    3.447244   2.142716   1.084490   3.679869   3.568135
                    6          7          8          9
     6  H    0.000000
     7  H    2.515983   0.000000
     8  H    3.537159   3.063002   0.000000
     9  H    4.309736   2.557895   1.903695   0.000000
 Stoichiometry    C3H6
 Framework group  C1[X(C3H6)]
 Deg. of freedom    21
 Full point group                 C1      NOp   1
 Largest Abelian subgroup         C1      NOp   1
 Largest concise Abelian subgroup C1      NOp   1
                         Standard orientation:                         
 ---------------------------------------------------------------------
 Center     Atomic      Atomic             Coordinates (Angstroms)
 Number     Number       Type             X           Y           Z
 ---------------------------------------------------------------------
      1          6           0        1.198236   -0.176281   -0.000370
      2          6           0       -0.144985    0.551367   -0.020396
      3          6           0       -1.211801   -0.253859   -0.004439
      4          1           0        1.201390   -0.907089   -0.819861
      5          1           0        1.105553   -0.726953    0.955249
      6          1           0        2.051765    0.504270   -0.030867
      7          1           0       -0.195375    1.634721    0.020267
      8          1           0       -0.973803   -1.327683    0.006348
      9          1           0       -2.238227    0.095376    0.020101
 ---------------------------------------------------------------------
 Rotational constants (GHZ):          40.4880931          10.1772783           8.5754323
 Standard basis: 6-31+G(d) (6D, 7F)
 There are    69 symmetry adapted cartesian basis functions of A   symmetry.
 There are    69 symmetry adapted basis functions of A   symmetry.
    69 basis functions,   120 primitive gaussians,    69 cartesian basis functions
    12 alpha electrons       12 beta electrons
       nuclear repulsion energy        71.1398574094 Hartrees.
 NAtoms=    9 NActive=    9 NUniq=    9 SFac= 1.00D+00 NAtFMM=   60 NAOKFM=F Big=F
 Integral buffers will be    131072 words long.
 Raffenetti 2 integral format.
 Two-electron integral symmetry is turned on.
 One-electron integrals computed using PRISM.
 NBasis=    69 RedAO= T EigKep=  1.76D-04  NBF=    69
 NBsUse=    69 1.00D-06 EigRej= -1.00D+00 NBFU=    69
 ExpMin= 4.38D-02 ExpMax= 3.05D+03 ExpMxC= 4.57D+02 IAcc=3 IRadAn=         5 AccDes= 0.00D+00
 Harris functional with IExCor=  402 and IRadAn=       5 diagonalized for initial guess.
 HarFok:  IExCor=  402 AccDes= 0.00D+00 IRadAn=         5 IDoV= 1 UseB2=F ITyADJ=14
 ICtDFT=  3500011 ScaDFX=  1.000000  1.000000  1.000000  1.000000
 FoFCou: FMM=F IPFlag=           0 FMFlag=      100000 FMFlg1=           0
         NFxFlg=           0 DoJE=T BraDBF=F KetDBF=T FulRan=T
         wScrn=  0.000000 ICntrl=       500 IOpCl=  0 I1Cent=   200000004 NGrid=           0
         NMat0=    1 NMatS0=      1 NMatT0=    0 NMatD0=    1 NMtDS0=    0 NMtDT0=    0
 Petite list used in FoFCou.
 Initial guess <Sx>= 0.0000 <Sy>= 0.0000 <Sz>= 0.0000 <S**2>=-0.0000 S=-0.0000
 Keep R1 and R2 ints in memory in canonical form, NReq=7619695.
 Requested convergence on RMS density matrix=1.00D-08 within 128 cycles.
 Requested convergence on MAX density matrix=1.00D-06.
 Requested convergence on             energy=1.00D-06.
 No special actions if energy rises.
 SCF Done:  E(UB3LYP) =  -117.900249649     A.U. after   11 cycles
            NFock= 11  Conv=0.21D-08     -V/T= 2.0106
 <Sx>= 0.0000 <Sy>= 0.0000 <Sz>= 0.0000 <S**2>=-0.0000 S=-0.0000
 <L.S>= 0.000000000000E+00
 Annihilation of the first spin contaminant:
 S**2 before annihilation    -0.0000,   after     0.0000

 **********************************************************************

            Population analysis using the SCF density.

 **********************************************************************

 Orbital symmetries:
 Alpha Orbitals:
       Occupied  (A) (A) (A) (A) (A) (A) (A) (A) (A) (A) (A) (A)
       Virtual   (A) (A) (A) (A) (A) (A) (A) (A) (A) (A) (A) (A)
                 (A) (A) (A) (A) (A) (A) (A) (A) (A) (A) (A) (A)
                 (A) (A) (A) (A) (A) (A) (A) (A) (A) (A) (A) (A)
                 (A) (A) (A) (A) (A) (A) (A) (A) (A) (A) (A) (A)
                 (A) (A) (A) (A) (A) (A) (A) (A) (A)
 Beta  Orbitals:
       Occupied  (A) (A) (A) (A) (A) (A) (A) (A) (A) (A) (A) (A)
       Virtual   (A) (A) (A) (A) (A) (A) (A) (A) (A) (A) (A) (A)
                 (A) (A) (A) (A) (A) (A) (A) (A) (A) (A) (A) (A)
                 (A) (A) (A) (A) (A) (A) (A) (A) (A) (A) (A) (A)
                 (A) (A) (A) (A) (A) (A) (A) (A) (A) (A) (A) (A)
                 (A) (A) (A) (A) (A) (A) (A) (A) (A)
 The electronic state is 1-A.
 Alpha  occ. eigenvalues --  -10.19650 -10.18678 -10.18053  -0.79301  -0.67700
 Alpha  occ. eigenvalues --   -0.55763  -0.47486  -0.41959  -0.41009  -0.38057
 Alpha  occ. eigenvalues --   -0.34805  -0.25330
 Alpha virt. eigenvalues --   -0.00589   0.01728   0.03260   0.03317   0.05954
 Alpha virt. eigenvalues --    0.06541   0.07715   0.09213   0.09500   0.11623
 Alpha virt. eigenvalues --    0.12658   0.12998   0.16485   0.20055   0.20833
 Alpha virt. eigenvalues --    0.22218   0.25232   0.26651   0.30713   0.34645
 Alpha virt. eigenvalues --    0.37586   0.59837   0.64269   0.66551   0.69008
 Alpha virt. eigenvalues --    0.69865   0.73457   0.77492   0.79172   0.88479
 Alpha virt. eigenvalues --    0.92402   0.94480   0.96760   1.01875   1.03848
 Alpha virt. eigenvalues --    1.09087   1.17755   1.23834   1.32756   1.41735
 Alpha virt. eigenvalues --    1.47376   1.70326   1.79378   1.88366   2.00888
 Alpha virt. eigenvalues --    2.12924   2.17402   2.22443   2.23793   2.25294
 Alpha virt. eigenvalues --    2.42645   2.56212   2.76208   2.81163   4.19312
 Alpha virt. eigenvalues --    4.21973   4.41544
  Beta  occ. eigenvalues --  -10.19650 -10.18678 -10.18053  -0.79301  -0.67700
  Beta  occ. eigenvalues --   -0.55763  -0.47486  -0.41959  -0.41009  -0.38057
  Beta  occ. eigenvalues --   -0.34805  -0.25330
  Beta virt. eigenvalues --   -0.00589   0.01728   0.03260   0.03317   0.05954
  Beta virt. eigenvalues --    0.06541   0.07715   0.09213   0.09500   0.11623
  Beta virt. eigenvalues --    0.12658   0.12998   0.16485   0.20055   0.20833
  Beta virt. eigenvalues --    0.22218   0.25232   0.26651   0.30713   0.34645
  Beta virt. eigenvalues --    0.37586   0.59837   0.64269   0.66551   0.69008
  Beta virt. eigenvalues --    0.69865   0.73457   0.77492   0.79172   0.88479
  Beta virt. eigenvalues --    0.92402   0.94480   0.96760   1.01875   1.03848
  Beta virt. eigenvalues --    1.09087   1.17755   1.23834   1.32756   1.41735
  Beta virt. eigenvalues --    1.47376   1.70326   1.79378   1.88366   2.00888
  Beta virt. eigenvalues --    2.12924   2.17402   2.22443   2.23793   2.25294
  Beta virt. eigenvalues --    2.42645   2.56212   2.76208   2.81163   4.19312
  Beta virt. eigenvalues --    4.21973   4.41544
          Condensed to atoms (all electrons):
               1          2          3          4          5          6
     1  C    5.538461   0.141809  -0.035215   0.404206   0.423710   0.392951
     2  C    0.141809   5.089039   0.611405  -0.057869  -0.074189  -0.056775
     3  C   -0.035215   0.611405   5.127953  -0.011713  -0.025275   0.013923
     4  H    0.404206  -0.057869  -0.011713   0.496421  -0.030592  -0.022205
     5  H    0.423710  -0.074189  -0.025275  -0.030592   0.505718  -0.021580
     6  H    0.392951  -0.056775   0.013923  -0.022205  -0.021580   0.497697
     7  H   -0.031621   0.332560  -0.002579   0.002559   0.003027  -0.003148
     8  H    0.003391  -0.097377   0.417273   0.001295   0.001176   0.000474
     9  H    0.005410  -0.033024   0.378727   0.000075  -0.000003  -0.000167
               7          8          9
     1  C   -0.031621   0.003391   0.005410
     2  C    0.332560  -0.097377  -0.033024
     3  C   -0.002579   0.417273   0.378727
     4  H    0.002559   0.001295   0.000075
     5  H    0.003027   0.001176  -0.000003
     6  H   -0.003148   0.000474  -0.000167
     7  H    0.516894   0.004575  -0.004553
     8  H    0.004575   0.527071  -0.030257
     9  H   -0.004553  -0.030257   0.499938
          Atomic-Atomic Spin Densities.
               1          2          3          4          5          6
     1  C   -0.000000  -0.000000   0.000000   0.000000  -0.000000   0.000000
     2  C   -0.000000  -0.000000   0.000000  -0.000000   0.000000   0.000000
     3  C    0.000000   0.000000  -0.000000   0.000000   0.000000  -0.000000
     4  H    0.000000  -0.000000   0.000000   0.000000   0.000000   0.000000
     5  H   -0.000000   0.000000   0.000000   0.000000  -0.000000  -0.000000
     6  H    0.000000   0.000000  -0.000000   0.000000  -0.000000   0.000000
     7  H   -0.000000  -0.000000   0.000000   0.000000  -0.000000   0.000000
     8  H   -0.000000   0.000000   0.000000  -0.000000  -0.000000   0.000000
     9  H    0.000000   0.000000  -0.000000  -0.000000  -0.000000   0.000000
               7          8          9
     1  C   -0.000000  -0.000000   0.000000
     2  C   -0.000000   0.000000   0.000000
     3  C    0.000000   0.000000  -0.000000
     4  H    0.000000  -0.000000  -0.000000
     5  H   -0.000000  -0.000000  -0.000000
     6  H    0.000000   0.000000   0.000000
     7  H    0.000000  -0.000000   0.000000
     8  H   -0.000000  -0.000000   0.000000
     9  H    0.000000   0.000000   0.000000
 Mulliken charges and spin densities:
               1          2
     1  C   -0.843101  -0.000000
     2  C    0.144421  -0.000000
     3  C   -0.474499   0.000000
     4  H    0.217822   0.000000
     5  H    0.218008  -0.000000
     6  H    0.198831   0.000000
     7  H    0.182285   0.000000
     8  H    0.172379  -0.000000
     9  H    0.183854   0.000000
 Sum of Mulliken charges =  -0.00000   0.00000
 Mulliken charges and spin densities with hydrogens summed into heavy atoms:
               1          2
     1  C   -0.208440  -0.000000
     2  C    0.326706  -0.000000
     3  C   -0.118266   0.000000
 Electronic spatial extent (au):  <R**2>=            190.2645
 Charge=             -0.0000 electrons
 Dipole moment (field-independent basis, Debye):
    X=              0.3586    Y=              0.0496    Z=              0.0930  Tot=              0.3738
 Quadrupole moment (field-independent basis, Debye-Ang):
   XX=            -20.1838   YY=            -19.1281   ZZ=            -22.2679
   XY=              0.2691   XZ=             -0.2158   YZ=              0.1099
 Traceless Quadrupole moment (field-independent basis, Debye-Ang):
   XX=              0.3428   YY=              1.3985   ZZ=             -1.7413
   XY=              0.2691   XZ=             -0.2158   YZ=              0.1099
 Octapole moment (field-independent basis, Debye-Ang**2):
  XXX=             -2.1859  YYY=              1.1610  ZZZ=              0.3841  XYY=              0.2251
  XXY=              1.8293  XXZ=             -0.1923  XZZ=              2.3069  YZZ=             -0.9979
  YYZ=             -0.0305  XYZ=              0.1438
 Hexadecapole moment (field-independent basis, Debye-Ang**3):
 XXXX=           -171.3144 YYYY=            -59.5281 ZZZZ=            -35.6497 XXXY=              1.5313
 XXXZ=             -1.2074 YYYX=              0.6794 YYYZ=              0.5221 ZZZX=             -0.2614
 ZZZY=              0.0585 XXYY=            -40.5722 XXZZ=            -38.6568 YYZZ=            -16.6335
 XXYZ=              0.2730 YYXZ=             -0.4445 ZZXY=             -0.4955
 N-N= 7.113985740942D+01 E-N=-4.142451077373D+02  KE= 1.166612406467D+02
                          Isotropic Fermi Contact Couplings
        Atom                 a.u.       MegaHertz       Gauss      10(-4) cm-1
     1  C(13)             -0.00000      -0.00000      -0.00000      -0.00000
     2  C(13)             -0.00000      -0.00000      -0.00000      -0.00000
     3  C(13)             -0.00000      -0.00000      -0.00000      -0.00000
     4  H(1)               0.00000       0.00000       0.00000       0.00000
     5  H(1)              -0.00000      -0.00000      -0.00000      -0.00000
     6  H(1)               0.00000       0.00000       0.00000       0.00000
     7  H(1)               0.00000       0.00000       0.00000       0.00000
     8  H(1)               0.00000       0.00000       0.00000       0.00000
     9  H(1)               0.00000       0.00000       0.00000       0.00000
 --------------------------------------------------------
       Center         ----  Spin Dipole Couplings  ----
                      3XX-RR        3YY-RR        3ZZ-RR
 --------------------------------------------------------
     1   Atom        0.000000      0.000000      0.000000
     2   Atom        0.000000      0.000000      0.000000
     3   Atom        0.000000      0.000000      0.000000
     4   Atom        0.000000      0.000000      0.000000
     5   Atom        0.000000      0.000000      0.000000
     6   Atom        0.000000      0.000000      0.000000
     7   Atom        0.000000      0.000000      0.000000
     8   Atom        0.000000      0.000000      0.000000
     9   Atom        0.000000      0.000000      0.000000
 --------------------------------------------------------
                        XY            XZ            YZ
 --------------------------------------------------------
     1   Atom        0.000000      0.000000      0.000000
     2   Atom        0.000000      0.000000      0.000000
     3   Atom        0.000000      0.000000      0.000000
     4   Atom        0.000000      0.000000      0.000000
     5   Atom        0.000000      0.000000      0.000000
     6   Atom        0.000000      0.000000      0.000000
     7   Atom        0.000000      0.000000      0.000000
     8   Atom        0.000000      0.000000      0.000000
     9   Atom        0.000000      0.000000      0.000000
 --------------------------------------------------------


 ---------------------------------------------------------------------------------
              Anisotropic Spin Dipole Couplings in Principal Axis System
 ---------------------------------------------------------------------------------

       Atom             a.u.   MegaHertz   Gauss  10(-4) cm-1        Axes

              Baa     0.0000     0.000     0.000     0.000  1.0000  0.0000  0.0000
     1 C(13)  Bbb     0.0000     0.000     0.000     0.000 -0.0000  1.0000  0.0000
              Bcc     0.0000     0.000     0.000     0.000  0.0000  0.0000  1.0000
 
              Baa     0.0000     0.000     0.000     0.000  1.0000  0.0000  0.0000
     2 C(13)  Bbb     0.0000     0.000     0.000     0.000 -0.0000  1.0000  0.0000
              Bcc     0.0000     0.000     0.000     0.000  0.0000  0.0000  1.0000
 
              Baa     0.0000     0.000     0.000     0.000  1.0000  0.0000  0.0000
     3 C(13)  Bbb     0.0000     0.000     0.000     0.000 -0.0000  1.0000  0.0000
              Bcc     0.0000     0.000     0.000     0.000  0.0000  0.0000  1.0000
 
              Baa     0.0000     0.000     0.000     0.000  1.0000  0.0000  0.0000
     4 H(1)   Bbb     0.0000     0.000     0.000     0.000 -0.0000  1.0000  0.0000
              Bcc     0.0000     0.000     0.000     0.000  0.0000  0.0000  1.0000
 
              Baa     0.0000     0.000     0.000     0.000  1.0000  0.0000  0.0000
     5 H(1)   Bbb     0.0000     0.000     0.000     0.000 -0.0000  1.0000  0.0000
              Bcc     0.0000     0.000     0.000     0.000  0.0000  0.0000  1.0000
 
              Baa     0.0000     0.000     0.000     0.000  1.0000  0.0000  0.0000
     6 H(1)   Bbb     0.0000     0.000     0.000     0.000 -0.0000  1.0000  0.0000
              Bcc     0.0000     0.000     0.000     0.000  0.0000  0.0000  1.0000
 
              Baa     0.0000     0.000     0.000     0.000  1.0000  0.0000  0.0000
     7 H(1)   Bbb     0.0000     0.000     0.000     0.000 -0.0000  1.0000  0.0000
              Bcc     0.0000     0.000     0.000     0.000  0.0000  0.0000  1.0000
 
              Baa     0.0000     0.000     0.000     0.000  1.0000  0.0000  0.0000
     8 H(1)   Bbb     0.0000     0.000     0.000     0.000 -0.0000  1.0000  0.0000
              Bcc     0.0000     0.000     0.000     0.000  0.0000  0.0000  1.0000
 
              Baa     0.0000     0.000     0.000     0.000  1.0000  0.0000  0.0000
     9 H(1)   Bbb     0.0000     0.000     0.000     0.000 -0.0000  1.0000  0.0000
              Bcc     0.0000     0.000     0.000     0.000  0.0000  0.0000  1.0000
 

 ---------------------------------------------------------------------------------

 1\1\GINC-NODE32\SP\UB3LYP\6-31+G(d)\C3H6\YANZ\12-Oct-2023\0\\# ub3lyp/
 6-31+g(d)\\tmpdir/M2_ref_59.gjf\\0,1\C,0,-1.07240839,1.28243937,0.0207
 4375\C,0,-1.87263393,0.65396624,-1.11889449\C,0,-1.85834667,-0.6825524
 ,-1.1348603\H,0,-0.05693866,0.86562436,-0.00650244\H,0,-1.60205949,0.8
 4922693,0.89070546\H,0,-1.08734547,2.3742003,0.00010213\H,0,-2.4515713
 ,1.26792245,-1.8013437\H,0,-1.26096028,-1.14284632,-0.33416345\H,0,-2.
 40082691,-1.28897047,-1.85186107\\Version=ES64L-G16RevA.03\State=1-A\H
 F=-117.9002496\S2=0.\S2-1=0.\S2A=0.\RMSD=2.068e-09\Dipole=0.0095282,0.
 1230856,0.0798994\Quadrupole=-0.4701777,0.7377066,-0.2675289,-0.236908
 1,0.9392583,-0.3559786\PG=C01 [X(C3H6)]\\@


  THE LARGE PRINT GIVETH,
  AND THE SMALL PRINT TAKETH AWAY.

                     -- TOM WAITS
 Job cpu time:       0 days  0 hours  0 minutes 30.4 seconds.
 Elapsed time:       0 days  0 hours  0 minutes 15.4 seconds.
 File lengths (MBytes):  RWF=      6 Int=      0 D2E=      0 Chk=      1 Scr=      1
 Normal termination of Gaussian 16 at Thu Oct 12 15:12:32 2023.
