 Entering Gaussian System, Link 0=g16
 Initial command:
 /share/apps/gaussian/g16/l1.exe "/tmp/58286.mgr/Gau-29882.inp" -scrdir="/tmp/58286.mgr/"
 Entering Link 1 = /share/apps/gaussian/g16/l1.exe PID=     29883.
  
 Copyright (c) 1988,1990,1992,1993,1995,1998,2003,2009,2016,
            Gaussian, Inc.  All Rights Reserved.
  
 This is part of the Gaussian(R) 16 program.  It is based on
 the Gaussian(R) 09 system (copyright 2009, Gaussian, Inc.),
 the Gaussian(R) 03 system (copyright 2003, Gaussian, Inc.),
 the Gaussian(R) 98 system (copyright 1998, Gaussian, Inc.),
 the Gaussian(R) 94 system (copyright 1995, Gaussian, Inc.),
 the Gaussian 92(TM) system (copyright 1992, Gaussian, Inc.),
 the Gaussian 90(TM) system (copyright 1990, Gaussian, Inc.),
 the Gaussian 88(TM) system (copyright 1988, Gaussian, Inc.),
 the Gaussian 86(TM) system (copyright 1986, Carnegie Mellon
 University), and the Gaussian 82(TM) system (copyright 1983,
 Carnegie Mellon University). Gaussian is a federally registered
 trademark of Gaussian, Inc.
  
 This software contains proprietary and confidential information,
 including trade secrets, belonging to Gaussian, Inc.
  
 This software is provided under written license and may be
 used, copied, transmitted, or stored only in accord with that
 written license.
  
 The following legend is applicable only to US Government
 contracts under FAR:
  
                    RESTRICTED RIGHTS LEGEND
  
 Use, reproduction and disclosure by the US Government is
 subject to restrictions as set forth in subparagraphs (a)
 and (c) of the Commercial Computer Software - Restricted
 Rights clause in FAR 52.227-19.
  
 Gaussian, Inc.
 340 Quinnipiac St., Bldg. 40, Wallingford CT 06492
  
  
 ---------------------------------------------------------------
 Warning -- This program may not be used in any manner that
 competes with the business of Gaussian, Inc. or will provide
 assistance to any competitor of Gaussian, Inc.  The licensee
 of this program is prohibited from giving any competitor of
 Gaussian, Inc. access to this program.  By using this program,
 the user acknowledges that Gaussian, Inc. is engaged in the
 business of creating and licensing software in the field of
 computational chemistry and represents and warrants to the
 licensee that it is not a competitor of Gaussian, Inc. and that
 it will not use this program in any manner prohibited above.
 ---------------------------------------------------------------
  

 Cite this work as:
 Gaussian 16, Revision A.03,
 M. J. Frisch, G. W. Trucks, H. B. Schlegel, G. E. Scuseria, 
 M. A. Robb, J. R. Cheeseman, G. Scalmani, V. Barone, 
 G. A. Petersson, H. Nakatsuji, X. Li, M. Caricato, A. V. Marenich, 
 J. Bloino, B. G. Janesko, R. Gomperts, B. Mennucci, H. P. Hratchian, 
 J. V. Ortiz, A. F. Izmaylov, J. L. Sonnenberg, D. Williams-Young, 
 F. Ding, F. Lipparini, F. Egidi, J. Goings, B. Peng, A. Petrone, 
 T. Henderson, D. Ranasinghe, V. G. Zakrzewski, J. Gao, N. Rega, 
 G. Zheng, W. Liang, M. Hada, M. Ehara, K. Toyota, R. Fukuda, 
 J. Hasegawa, M. Ishida, T. Nakajima, Y. Honda, O. Kitao, H. Nakai, 
 T. Vreven, K. Throssell, J. A. Montgomery, Jr., J. E. Peralta, 
 F. Ogliaro, M. J. Bearpark, J. J. Heyd, E. N. Brothers, K. N. Kudin, 
 V. N. Staroverov, T. A. Keith, R. Kobayashi, J. Normand, 
 K. Raghavachari, A. P. Rendell, J. C. Burant, S. S. Iyengar, 
 J. Tomasi, M. Cossi, J. M. Millam, M. Klene, C. Adamo, R. Cammi, 
 J. W. Ochterski, R. L. Martin, K. Morokuma, O. Farkas, 
 J. B. Foresman, and D. J. Fox, Gaussian, Inc., Wallingford CT, 2016.
 
 ******************************************
 Gaussian 16:  ES64L-G16RevA.03 25-Dec-2016
                12-Oct-2023 
 ******************************************
 %nprocshared=2
 Will use up to    2 processors via shared memory.
 %mem=2GB
 ------------------
 # ub3lyp/6-31+g(d)
 ------------------
 1/38=1,172=1/1;
 2/12=2,17=6,18=5,40=1/2;
 3/5=1,6=6,7=11,11=2,25=1,30=1,74=-5,116=2/1,2,3;
 4//1;
 5/5=2,38=5/2;
 6/7=2,8=2,9=2,10=2,28=1/1;
 99/5=1,9=1/99;
 --------------------
 tmpdir/M2_ref_23.gjf
 --------------------
 Symbolic Z-matrix:
 Charge =  0 Multiplicity = 1
 C                     0.33039   0.70664  -0.0169 
 C                     1.51457   1.42596   0.00432 
 C                     2.73397   0.74492  -0.01998 
 O                     0.35476  -0.52915  -0.05691 
 H                    -0.68507   1.12345   0.01035 
 H                     1.49361   2.51222   0.04105 
 H                     2.75344  -0.26179  -0.04565 
 H                     3.66449   1.3048   -0.00921 
 
                          Input orientation:                          
 ---------------------------------------------------------------------
 Center     Atomic      Atomic             Coordinates (Angstroms)
 Number     Number       Type             X           Y           Z
 ---------------------------------------------------------------------
      1          6           0        0.330395    0.706637   -0.016895
      2          6           0        1.514569    1.425958    0.004316
      3          6           0        2.733973    0.744920   -0.019982
      4          8           0        0.354759   -0.529153   -0.056908
      5          1           0       -0.685075    1.123452    0.010351
      6          1           0        1.493615    2.512221    0.041045
      7          1           0        2.753438   -0.261786   -0.045646
      8          1           0        3.664487    1.304805   -0.009211
 ---------------------------------------------------------------------
                    Distance matrix (angstroms):
                    1          2          3          4          5
     1  C    0.000000
     2  C    1.385691   0.000000
     3  C    2.403885   1.396907   0.000000
     4  O    1.236678   2.274063   2.699127   0.000000
     5  H    1.098024   2.220355   3.440072   1.953684   0.000000
     6  H    2.148621   1.087087   2.159992   3.249084   2.583856
     7  H    2.609561   2.094224   1.007222   2.413561   3.707478
     8  H    3.387334   2.153371   1.086021   3.784174   4.353385
                    6          7          8
     6  H    0.000000
     7  H    3.047915   0.000000
     8  H    2.484566   1.812607   0.000000
 Stoichiometry    C3H4O
 Framework group  C1[X(C3H4O)]
 Deg. of freedom    18
 Full point group                 C1      NOp   1
 Largest Abelian subgroup         C1      NOp   1
 Largest concise Abelian subgroup C1      NOp   1
                         Standard orientation:                         
 ---------------------------------------------------------------------
 Center     Atomic      Atomic             Coordinates (Angstroms)
 Number     Number       Type             X           Y           Z
 ---------------------------------------------------------------------
      1          6           0       -0.789837    0.487561   -0.001301
      2          6           0        0.586096    0.651717   -0.000560
      3          6           0        1.413427   -0.473836    0.000624
      4          8           0       -1.280088   -0.647791   -0.000779
      5          1           0       -1.541005    1.288363    0.009641
      6          1           0        1.017466    1.649553    0.000539
      7          1           0        1.013787   -1.398351    0.007977
      8          1           0        2.492341   -0.349893   -0.004511
 ---------------------------------------------------------------------
 Rotational constants (GHZ):          21.3141929           6.9709301           5.2529521
 Standard basis: 6-31+G(d) (6D, 7F)
 There are    84 symmetry adapted cartesian basis functions of A   symmetry.
 There are    84 symmetry adapted basis functions of A   symmetry.
    84 basis functions,   144 primitive gaussians,    84 cartesian basis functions
    15 alpha electrons       15 beta electrons
       nuclear repulsion energy       106.2535291858 Hartrees.
 NAtoms=    8 NActive=    8 NUniq=    8 SFac= 1.00D+00 NAtFMM=   60 NAOKFM=F Big=F
 Integral buffers will be    131072 words long.
 Raffenetti 2 integral format.
 Two-electron integral symmetry is turned on.
 One-electron integrals computed using PRISM.
 NBasis=    84 RedAO= T EigKep=  1.27D-04  NBF=    84
 NBsUse=    84 1.00D-06 EigRej= -1.00D+00 NBFU=    84
 ExpMin= 4.38D-02 ExpMax= 5.48D+03 ExpMxC= 8.25D+02 IAcc=3 IRadAn=         5 AccDes= 0.00D+00
 Harris functional with IExCor=  402 and IRadAn=       5 diagonalized for initial guess.
 HarFok:  IExCor=  402 AccDes= 0.00D+00 IRadAn=         5 IDoV= 1 UseB2=F ITyADJ=14
 ICtDFT=  3500011 ScaDFX=  1.000000  1.000000  1.000000  1.000000
 FoFCou: FMM=F IPFlag=           0 FMFlag=      100000 FMFlg1=           0
         NFxFlg=           0 DoJE=T BraDBF=F KetDBF=T FulRan=T
         wScrn=  0.000000 ICntrl=       500 IOpCl=  0 I1Cent=   200000004 NGrid=           0
         NMat0=    1 NMatS0=      1 NMatT0=    0 NMatD0=    1 NMtDS0=    0 NMtDT0=    0
 Petite list used in FoFCou.
 Initial guess <Sx>= 0.0000 <Sy>= 0.0000 <Sz>= 0.0000 <S**2>=-0.0000 S=-0.0000
 Keep R1 and R2 ints in memory in canonical form, NReq=14566444.
 Requested convergence on RMS density matrix=1.00D-08 within 128 cycles.
 Requested convergence on MAX density matrix=1.00D-06.
 Requested convergence on             energy=1.00D-06.
 No special actions if energy rises.
 SCF Done:  E(UB3LYP) =  -191.902765378     A.U. after   12 cycles
            NFock= 12  Conv=0.15D-08     -V/T= 2.0087
 <Sx>= 0.0000 <Sy>= 0.0000 <Sz>= 0.0000 <S**2>=-0.0000 S=-0.0000
 <L.S>= 0.000000000000E+00
 Annihilation of the first spin contaminant:
 S**2 before annihilation    -0.0000,   after     0.0000

 **********************************************************************

            Population analysis using the SCF density.

 **********************************************************************

 Orbital symmetries:
 Alpha Orbitals:
       Occupied  (A) (A) (A) (A) (A) (A) (A) (A) (A) (A) (A) (A)
                 (A) (A) (A)
       Virtual   (A) (A) (A) (A) (A) (A) (A) (A) (A) (A) (A) (A)
                 (A) (A) (A) (A) (A) (A) (A) (A) (A) (A) (A) (A)
                 (A) (A) (A) (A) (A) (A) (A) (A) (A) (A) (A) (A)
                 (A) (A) (A) (A) (A) (A) (A) (A) (A) (A) (A) (A)
                 (A) (A) (A) (A) (A) (A) (A) (A) (A) (A) (A) (A)
                 (A) (A) (A) (A) (A) (A) (A) (A) (A)
 Beta  Orbitals:
       Occupied  (A) (A) (A) (A) (A) (A) (A) (A) (A) (A) (A) (A)
                 (A) (A) (A)
       Virtual   (A) (A) (A) (A) (A) (A) (A) (A) (A) (A) (A) (A)
                 (A) (A) (A) (A) (A) (A) (A) (A) (A) (A) (A) (A)
                 (A) (A) (A) (A) (A) (A) (A) (A) (A) (A) (A) (A)
                 (A) (A) (A) (A) (A) (A) (A) (A) (A) (A) (A) (A)
                 (A) (A) (A) (A) (A) (A) (A) (A) (A) (A) (A) (A)
                 (A) (A) (A) (A) (A) (A) (A) (A) (A)
 The electronic state is 1-A.
 Alpha  occ. eigenvalues --  -19.14931 -10.27692 -10.22936 -10.22035  -1.04185
 Alpha  occ. eigenvalues --   -0.80592  -0.68309  -0.56032  -0.53119  -0.45817
 Alpha  occ. eigenvalues --   -0.43175  -0.40567  -0.39995  -0.28719  -0.26432
 Alpha virt. eigenvalues --   -0.09846   0.00592   0.02262   0.03817   0.04160
 Alpha virt. eigenvalues --    0.06147   0.06202   0.07042   0.09315   0.09503
 Alpha virt. eigenvalues --    0.11631   0.12102   0.14109   0.16195   0.18728
 Alpha virt. eigenvalues --    0.21989   0.24874   0.25480   0.25931   0.27092
 Alpha virt. eigenvalues --    0.29328   0.32550   0.32907   0.41374   0.45798
 Alpha virt. eigenvalues --    0.63112   0.64813   0.67753   0.68156   0.71152
 Alpha virt. eigenvalues --    0.71274   0.76571   0.87809   0.91377   0.92416
 Alpha virt. eigenvalues --    0.95760   1.04817   1.07504   1.09826   1.16349
 Alpha virt. eigenvalues --    1.21886   1.26140   1.27965   1.32419   1.34508
 Alpha virt. eigenvalues --    1.40568   1.54392   1.58406   1.64001   1.78804
 Alpha virt. eigenvalues --    1.82681   1.84685   1.95677   1.96841   2.10567
 Alpha virt. eigenvalues --    2.21832   2.23823   2.31152   2.32409   2.53572
 Alpha virt. eigenvalues --    2.57034   2.61306   2.79316   2.97360   3.11840
 Alpha virt. eigenvalues --    4.11044   4.17829   4.26942   4.42387
  Beta  occ. eigenvalues --  -19.14931 -10.27692 -10.22936 -10.22035  -1.04185
  Beta  occ. eigenvalues --   -0.80592  -0.68309  -0.56032  -0.53119  -0.45817
  Beta  occ. eigenvalues --   -0.43175  -0.40567  -0.39995  -0.28719  -0.26432
  Beta virt. eigenvalues --   -0.09846   0.00592   0.02262   0.03817   0.04160
  Beta virt. eigenvalues --    0.06147   0.06202   0.07042   0.09315   0.09503
  Beta virt. eigenvalues --    0.11631   0.12102   0.14109   0.16195   0.18728
  Beta virt. eigenvalues --    0.21989   0.24874   0.25480   0.25931   0.27092
  Beta virt. eigenvalues --    0.29328   0.32550   0.32907   0.41374   0.45798
  Beta virt. eigenvalues --    0.63112   0.64813   0.67753   0.68156   0.71152
  Beta virt. eigenvalues --    0.71274   0.76571   0.87809   0.91377   0.92416
  Beta virt. eigenvalues --    0.95760   1.04817   1.07504   1.09826   1.16349
  Beta virt. eigenvalues --    1.21886   1.26140   1.27965   1.32419   1.34508
  Beta virt. eigenvalues --    1.40568   1.54392   1.58406   1.64001   1.78804
  Beta virt. eigenvalues --    1.82681   1.84685   1.95677   1.96841   2.10567
  Beta virt. eigenvalues --    2.21832   2.23823   2.31152   2.32409   2.53572
  Beta virt. eigenvalues --    2.57034   2.61306   2.79316   2.97360   3.11840
  Beta virt. eigenvalues --    4.11044   4.17829   4.26942   4.42387
          Condensed to atoms (all electrons):
               1          2          3          4          5          6
     1  C    5.059168  -0.093162   0.068898   0.489723   0.461480   0.018109
     2  C   -0.093162   5.814098   0.455522  -0.229263  -0.198224   0.265789
     3  C    0.068898   0.455522   5.101679   0.025755   0.023629  -0.001570
     4  O    0.489723  -0.229263   0.025755   8.200920  -0.075963   0.006146
     5  H    0.461480  -0.198224   0.023629  -0.075963   0.621288   0.001412
     6  H    0.018109   0.265789  -0.001570   0.006146   0.001412   0.519249
     7  H   -0.002997  -0.059095   0.406393   0.002597   0.000031   0.004114
     8  H    0.018756  -0.037508   0.355238   0.002093  -0.000047  -0.004084
               7          8
     1  C   -0.002997   0.018756
     2  C   -0.059095  -0.037508
     3  C    0.406393   0.355238
     4  O    0.002597   0.002093
     5  H    0.000031  -0.000047
     6  H    0.004114  -0.004084
     7  H    0.444130  -0.032523
     8  H   -0.032523   0.496971
          Atomic-Atomic Spin Densities.
               1          2          3          4          5          6
     1  C   -0.000000   0.000000  -0.000000  -0.000000  -0.000000   0.000000
     2  C    0.000000  -0.000000   0.000000   0.000000   0.000000  -0.000000
     3  C   -0.000000   0.000000  -0.000000  -0.000000  -0.000000   0.000000
     4  O   -0.000000   0.000000  -0.000000   0.000000  -0.000000  -0.000000
     5  H   -0.000000   0.000000  -0.000000  -0.000000   0.000000  -0.000000
     6  H    0.000000  -0.000000   0.000000  -0.000000  -0.000000   0.000000
     7  H    0.000000   0.000000  -0.000000  -0.000000  -0.000000   0.000000
     8  H   -0.000000   0.000000  -0.000000  -0.000000  -0.000000  -0.000000
               7          8
     1  C    0.000000  -0.000000
     2  C    0.000000   0.000000
     3  C   -0.000000  -0.000000
     4  O   -0.000000  -0.000000
     5  H   -0.000000  -0.000000
     6  H    0.000000  -0.000000
     7  H    0.000000   0.000000
     8  H    0.000000   0.000000
 Mulliken charges and spin densities:
               1          2
     1  C   -0.019975  -0.000000
     2  C    0.081842   0.000000
     3  C   -0.435542  -0.000000
     4  O   -0.422010   0.000000
     5  H    0.166395   0.000000
     6  H    0.190835   0.000000
     7  H    0.237350   0.000000
     8  H    0.201104   0.000000
 Sum of Mulliken charges =  -0.00000   0.00000
 Mulliken charges and spin densities with hydrogens summed into heavy atoms:
               1          2
     1  C    0.146420  -0.000000
     2  C    0.272678   0.000000
     3  C    0.002912  -0.000000
     4  O   -0.422010   0.000000
 Electronic spatial extent (au):  <R**2>=            255.9811
 Charge=             -0.0000 electrons
 Dipole moment (field-independent basis, Debye):
    X=              2.3774    Y=              1.8466    Z=              0.0069  Tot=              3.0104
 Quadrupole moment (field-independent basis, Debye-Ang):
   XX=            -23.9802   YY=            -22.8038   ZZ=            -25.2399
   XY=             -3.5158   XZ=             -0.0118   YZ=             -0.0071
 Traceless Quadrupole moment (field-independent basis, Debye-Ang):
   XX=              0.0278   YY=              1.2042   ZZ=             -1.2320
   XY=             -3.5158   XZ=             -0.0118   YZ=             -0.0071
 Octapole moment (field-independent basis, Debye-Ang**2):
  XXX=              6.3795  YYY=             -0.8705  ZZZ=              0.0030  XYY=              1.1611
  XXY=              2.9695  XXZ=             -0.0129  XZZ=             -3.2423  YZZ=             -1.1169
  YYZ=              0.0342  XYZ=             -0.0097
 Hexadecapole moment (field-independent basis, Debye-Ang**3):
 XXXX=           -210.2595 YYYY=            -90.1076 ZZZZ=            -28.4735 XXXY=             -7.0537
 XXXZ=             -0.1096 YYYX=              0.8503 YYYZ=             -0.0167 ZZZX=             -0.0047
 ZZZY=             -0.0082 XXYY=            -51.5124 XXZZ=            -43.7753 YYZZ=            -21.1634
 XXYZ=              0.0211 YYXZ=             -0.0003 ZZXY=              0.1915
 N-N= 1.062535291858D+02 E-N=-6.597763471957D+02  KE= 1.902446467286D+02
                          Isotropic Fermi Contact Couplings
        Atom                 a.u.       MegaHertz       Gauss      10(-4) cm-1
     1  C(13)              0.00000       0.00000       0.00000       0.00000
     2  C(13)             -0.00000      -0.00000      -0.00000      -0.00000
     3  C(13)             -0.00000      -0.00000      -0.00000      -0.00000
     4  O(17)             -0.00000       0.00000       0.00000       0.00000
     5  H(1)               0.00000       0.00000       0.00000       0.00000
     6  H(1)               0.00000       0.00000       0.00000       0.00000
     7  H(1)               0.00000       0.00000       0.00000       0.00000
     8  H(1)               0.00000       0.00000       0.00000       0.00000
 --------------------------------------------------------
       Center         ----  Spin Dipole Couplings  ----
                      3XX-RR        3YY-RR        3ZZ-RR
 --------------------------------------------------------
     1   Atom        0.000000     -0.000000     -0.000000
     2   Atom        0.000000     -0.000000      0.000000
     3   Atom        0.000000      0.000000     -0.000000
     4   Atom        0.000000      0.000000     -0.000000
     5   Atom        0.000000     -0.000000     -0.000000
     6   Atom        0.000000      0.000000     -0.000000
     7   Atom       -0.000000      0.000000      0.000000
     8   Atom       -0.000000      0.000000      0.000000
 --------------------------------------------------------
                        XY            XZ            YZ
 --------------------------------------------------------
     1   Atom        0.000000      0.000000      0.000000
     2   Atom       -0.000000      0.000000      0.000000
     3   Atom        0.000000      0.000000     -0.000000
     4   Atom       -0.000000     -0.000000     -0.000000
     5   Atom       -0.000000     -0.000000      0.000000
     6   Atom        0.000000      0.000000      0.000000
     7   Atom       -0.000000     -0.000000     -0.000000
     8   Atom       -0.000000      0.000000      0.000000
 --------------------------------------------------------


 ---------------------------------------------------------------------------------
              Anisotropic Spin Dipole Couplings in Principal Axis System
 ---------------------------------------------------------------------------------

       Atom             a.u.   MegaHertz   Gauss  10(-4) cm-1        Axes

              Baa    -0.0000    -0.000    -0.000    -0.000 -0.1209  0.9924 -0.0251
     1 C(13)  Bbb    -0.0000    -0.000    -0.000    -0.000 -0.0350  0.0210  0.9992
              Bcc     0.0000     0.000     0.000     0.000  0.9921  0.1217  0.0322
 
              Baa    -0.0000    -0.000    -0.000    -0.000  0.1098  0.9837 -0.1422
     2 C(13)  Bbb     0.0000     0.000     0.000     0.000 -0.0264  0.1459  0.9889
              Bcc     0.0000     0.000     0.000     0.000  0.9936 -0.1049  0.0420
 
              Baa    -0.0000    -0.000    -0.000    -0.000 -0.2029  0.2746  0.9399
     3 C(13)  Bbb    -0.0000    -0.000    -0.000    -0.000 -0.4022  0.8518 -0.3357
              Bcc     0.0000     0.000     0.000     0.000  0.8928  0.4462  0.0623
 
              Baa    -0.0000     0.000     0.000     0.000  0.1744  0.2630  0.9489
     4 O(17)  Bbb    -0.0000     0.000     0.000     0.000  0.7480  0.5913 -0.3013
              Bcc     0.0000    -0.000    -0.000    -0.000 -0.6403  0.7624 -0.0936
 
              Baa    -0.0000    -0.000    -0.000    -0.000 -0.1505 -0.4485  0.8810
     5 H(1)   Bbb    -0.0000    -0.000    -0.000    -0.000  0.3284  0.8179  0.4725
              Bcc     0.0000     0.000     0.000     0.000  0.9325 -0.3605 -0.0242
 
              Baa    -0.0000    -0.000    -0.000    -0.000  0.0970 -0.2587  0.9611
     6 H(1)   Bbb    -0.0000    -0.000    -0.000    -0.000 -0.6362  0.7265  0.2598
              Bcc     0.0000     0.000     0.000     0.000  0.7654  0.6366  0.0940
 
              Baa    -0.0000    -0.000    -0.000    -0.000  0.7502  0.6584  0.0607
     7 H(1)   Bbb     0.0000     0.000     0.000     0.000 -0.1207  0.0460  0.9916
              Bcc     0.0000     0.000     0.000     0.000 -0.6501  0.7513 -0.1140
 
              Baa    -0.0000    -0.000    -0.000    -0.000  0.8929  0.4416 -0.0872
     8 H(1)   Bbb     0.0000     0.000     0.000     0.000  0.0275  0.1398  0.9898
              Bcc     0.0000     0.000     0.000     0.000 -0.4493  0.8862 -0.1127
 

 ---------------------------------------------------------------------------------

 1\1\GINC-NODE32\SP\UB3LYP\6-31+G(d)\C3H4O1\YANZ\12-Oct-2023\0\\# ub3ly
 p/6-31+g(d)\\tmpdir/M2_ref_23.gjf\\0,1\C,0,0.33039499,0.70663737,-0.01
 689504\C,0,1.51456879,1.42595753,0.00431597\C,0,2.73397309,0.74492017,
 -0.01998226\O,0,0.35475864,-0.52915274,-0.05690802\H,0,-0.68507474,1.1
 2345238,0.01035115\H,0,1.49361496,2.51222136,0.0410451\H,0,2.75343849,
 -0.2617862,-0.04564602\H,0,3.66448683,1.30480451,-0.00921086\\Version=
 ES64L-G16RevA.03\State=1-A\HF=-191.9027654\S2=0.\S2-1=0.\S2A=0.\RMSD=1
 .540e-09\Dipole=0.5501585,1.0482372,0.0355947\Quadrupole=2.1425811,-1.
 2261599,-0.9164212,-2.0443526,-0.0806904,-0.0132641\PG=C01 [X(C3H4O1)]
 \\@


 HAPPINESS IS NOT HAVING WHAT YOU WANT --
 HAPPINESS IS WANTING WHAT YOU HAVE!

              -- FROM MRS. SEVERN'S DESK
 Job cpu time:       0 days  0 hours  0 minutes 38.0 seconds.
 Elapsed time:       0 days  0 hours  0 minutes 19.3 seconds.
 File lengths (MBytes):  RWF=     10 Int=      0 D2E=      0 Chk=      2 Scr=      1
 Normal termination of Gaussian 16 at Thu Oct 12 15:11:31 2023.
