 Entering Gaussian System, Link 0=g16
 Initial command:
 /share/apps/gaussian/g16/l1.exe "/tmp/58286.mgr/Gau-30007.inp" -scrdir="/tmp/58286.mgr/"
 Entering Link 1 = /share/apps/gaussian/g16/l1.exe PID=     30008.
  
 Copyright (c) 1988,1990,1992,1993,1995,1998,2003,2009,2016,
            Gaussian, Inc.  All Rights Reserved.
  
 This is part of the Gaussian(R) 16 program.  It is based on
 the Gaussian(R) 09 system (copyright 2009, Gaussian, Inc.),
 the Gaussian(R) 03 system (copyright 2003, Gaussian, Inc.),
 the Gaussian(R) 98 system (copyright 1998, Gaussian, Inc.),
 the Gaussian(R) 94 system (copyright 1995, Gaussian, Inc.),
 the Gaussian 92(TM) system (copyright 1992, Gaussian, Inc.),
 the Gaussian 90(TM) system (copyright 1990, Gaussian, Inc.),
 the Gaussian 88(TM) system (copyright 1988, Gaussian, Inc.),
 the Gaussian 86(TM) system (copyright 1986, Carnegie Mellon
 University), and the Gaussian 82(TM) system (copyright 1983,
 Carnegie Mellon University). Gaussian is a federally registered
 trademark of Gaussian, Inc.
  
 This software contains proprietary and confidential information,
 including trade secrets, belonging to Gaussian, Inc.
  
 This software is provided under written license and may be
 used, copied, transmitted, or stored only in accord with that
 written license.
  
 The following legend is applicable only to US Government
 contracts under FAR:
  
                    RESTRICTED RIGHTS LEGEND
  
 Use, reproduction and disclosure by the US Government is
 subject to restrictions as set forth in subparagraphs (a)
 and (c) of the Commercial Computer Software - Restricted
 Rights clause in FAR 52.227-19.
  
 Gaussian, Inc.
 340 Quinnipiac St., Bldg. 40, Wallingford CT 06492
  
  
 ---------------------------------------------------------------
 Warning -- This program may not be used in any manner that
 competes with the business of Gaussian, Inc. or will provide
 assistance to any competitor of Gaussian, Inc.  The licensee
 of this program is prohibited from giving any competitor of
 Gaussian, Inc. access to this program.  By using this program,
 the user acknowledges that Gaussian, Inc. is engaged in the
 business of creating and licensing software in the field of
 computational chemistry and represents and warrants to the
 licensee that it is not a competitor of Gaussian, Inc. and that
 it will not use this program in any manner prohibited above.
 ---------------------------------------------------------------
  

 Cite this work as:
 Gaussian 16, Revision A.03,
 M. J. Frisch, G. W. Trucks, H. B. Schlegel, G. E. Scuseria, 
 M. A. Robb, J. R. Cheeseman, G. Scalmani, V. Barone, 
 G. A. Petersson, H. Nakatsuji, X. Li, M. Caricato, A. V. Marenich, 
 J. Bloino, B. G. Janesko, R. Gomperts, B. Mennucci, H. P. Hratchian, 
 J. V. Ortiz, A. F. Izmaylov, J. L. Sonnenberg, D. Williams-Young, 
 F. Ding, F. Lipparini, F. Egidi, J. Goings, B. Peng, A. Petrone, 
 T. Henderson, D. Ranasinghe, V. G. Zakrzewski, J. Gao, N. Rega, 
 G. Zheng, W. Liang, M. Hada, M. Ehara, K. Toyota, R. Fukuda, 
 J. Hasegawa, M. Ishida, T. Nakajima, Y. Honda, O. Kitao, H. Nakai, 
 T. Vreven, K. Throssell, J. A. Montgomery, Jr., J. E. Peralta, 
 F. Ogliaro, M. J. Bearpark, J. J. Heyd, E. N. Brothers, K. N. Kudin, 
 V. N. Staroverov, T. A. Keith, R. Kobayashi, J. Normand, 
 K. Raghavachari, A. P. Rendell, J. C. Burant, S. S. Iyengar, 
 J. Tomasi, M. Cossi, J. M. Millam, M. Klene, C. Adamo, R. Cammi, 
 J. W. Ochterski, R. L. Martin, K. Morokuma, O. Farkas, 
 J. B. Foresman, and D. J. Fox, Gaussian, Inc., Wallingford CT, 2016.
 
 ******************************************
 Gaussian 16:  ES64L-G16RevA.03 25-Dec-2016
                12-Oct-2023 
 ******************************************
 %nprocshared=2
 Will use up to    2 processors via shared memory.
 %mem=2GB
 ------------------
 # ub3lyp/6-31+g(d)
 ------------------
 1/38=1,172=1/1;
 2/12=2,17=6,18=5,40=1/2;
 3/5=1,6=6,7=11,11=2,25=1,30=1,74=-5,116=2/1,2,3;
 4//1;
 5/5=2,38=5/2;
 6/7=2,8=2,9=2,10=2,28=1/1;
 99/5=1,9=1/99;
 -------------------
 tmpdir/M2_ref_5.gjf
 -------------------
 Symbolic Z-matrix:
 Charge =  0 Multiplicity = 1
 C                     2.73397   0.74492  -0.01998 
 C                     2.76086  -0.64578  -0.05544 
 H                     3.71236  -1.16918  -0.07324 
 O                     1.65893   1.34533   0.00144 
 H                     3.66449   1.3048   -0.00921 
 O                     1.71022  -1.28666  -0.06737 
 
                          Input orientation:                          
 ---------------------------------------------------------------------
 Center     Atomic      Atomic             Coordinates (Angstroms)
 Number     Number       Type             X           Y           Z
 ---------------------------------------------------------------------
      1          6           0        2.733973    0.744920   -0.019982
      2          6           0        2.760863   -0.645777   -0.055435
      3          1           0        3.712363   -1.169184   -0.073236
      4          8           0        1.658927    1.345334    0.001439
      5          1           0        3.664487    1.304805   -0.009211
      6          8           0        1.710220   -1.286657   -0.067373
 ---------------------------------------------------------------------
                    Distance matrix (angstroms):
                    1          2          3          4          5
     1  C    0.000000
     2  C    1.391409   0.000000
     3  H    2.150320   1.086104   0.000000
     4  O    1.231536   2.276405   3.247303   0.000000
     5  H    1.086021   2.150219   2.475280   2.005998   0.000000
     6  O    2.275439   1.230740   2.005595   2.633390   3.246262
                    6
     6  O    0.000000
 Stoichiometry    C2H2O2
 Framework group  C1[X(C2H2O2)]
 Deg. of freedom    12
 Full point group                 C1      NOp   1
 Largest Abelian subgroup         C1      NOp   1
 Largest concise Abelian subgroup C1      NOp   1
                         Standard orientation:                         
 ---------------------------------------------------------------------
 Center     Atomic      Atomic             Coordinates (Angstroms)
 Number     Number       Type             X           Y           Z
 ---------------------------------------------------------------------
      1          6           0       -0.695300    0.504453   -0.000491
      2          6           0        0.696109    0.503973    0.000240
      3          1           0        1.238415    1.444997    0.000571
      4          8           0       -1.317095   -0.558585    0.000209
      5          1           0       -1.236865    1.445808    0.000227
      6          8           0        1.316294   -0.559085   -0.000121
 ---------------------------------------------------------------------
 Rotational constants (GHZ):          25.0663336           7.2028355           5.5950835
 Standard basis: 6-31+G(d) (6D, 7F)
 There are    80 symmetry adapted cartesian basis functions of A   symmetry.
 There are    80 symmetry adapted basis functions of A   symmetry.
    80 basis functions,   136 primitive gaussians,    80 cartesian basis functions
    15 alpha electrons       15 beta electrons
       nuclear repulsion energy       105.9795382382 Hartrees.
 NAtoms=    6 NActive=    6 NUniq=    6 SFac= 1.00D+00 NAtFMM=   60 NAOKFM=F Big=F
 Integral buffers will be    131072 words long.
 Raffenetti 2 integral format.
 Two-electron integral symmetry is turned on.
 One-electron integrals computed using PRISM.
 NBasis=    80 RedAO= T EigKep=  1.28D-04  NBF=    80
 NBsUse=    80 1.00D-06 EigRej= -1.00D+00 NBFU=    80
 ExpMin= 4.38D-02 ExpMax= 5.48D+03 ExpMxC= 8.25D+02 IAcc=3 IRadAn=         5 AccDes= 0.00D+00
 Harris functional with IExCor=  402 and IRadAn=       5 diagonalized for initial guess.
 HarFok:  IExCor=  402 AccDes= 0.00D+00 IRadAn=         5 IDoV= 1 UseB2=F ITyADJ=14
 ICtDFT=  3500011 ScaDFX=  1.000000  1.000000  1.000000  1.000000
 FoFCou: FMM=F IPFlag=           0 FMFlag=      100000 FMFlg1=           0
         NFxFlg=           0 DoJE=T BraDBF=F KetDBF=T FulRan=T
         wScrn=  0.000000 ICntrl=       500 IOpCl=  0 I1Cent=   200000004 NGrid=           0
         NMat0=    1 NMatS0=      1 NMatT0=    0 NMatD0=    1 NMtDS0=    0 NMtDT0=    0
 Petite list used in FoFCou.
 Initial guess <Sx>= 0.0000 <Sy>= 0.0000 <Sz>= 0.0000 <S**2>= 0.0000 S= 0.0000
 Keep R1 and R2 ints in memory in canonical form, NReq=12310292.
 Requested convergence on RMS density matrix=1.00D-08 within 128 cycles.
 Requested convergence on MAX density matrix=1.00D-06.
 Requested convergence on             energy=1.00D-06.
 No special actions if energy rises.
 SCF Done:  E(UB3LYP) =  -227.810870026     A.U. after   11 cycles
            NFock= 11  Conv=0.93D-09     -V/T= 2.0082
 <Sx>= 0.0000 <Sy>= 0.0000 <Sz>= 0.0000 <S**2>= 0.0000 S= 0.0000
 <L.S>= 0.000000000000E+00
 Annihilation of the first spin contaminant:
 S**2 before annihilation     0.0000,   after     0.0000

 **********************************************************************

            Population analysis using the SCF density.

 **********************************************************************

 Orbital symmetries:
 Alpha Orbitals:
       Occupied  (A) (A) (A) (A) (A) (A) (A) (A) (A) (A) (A) (A)
                 (A) (A) (A)
       Virtual   (A) (A) (A) (A) (A) (A) (A) (A) (A) (A) (A) (A)
                 (A) (A) (A) (A) (A) (A) (A) (A) (A) (A) (A) (A)
                 (A) (A) (A) (A) (A) (A) (A) (A) (A) (A) (A) (A)
                 (A) (A) (A) (A) (A) (A) (A) (A) (A) (A) (A) (A)
                 (A) (A) (A) (A) (A) (A) (A) (A) (A) (A) (A) (A)
                 (A) (A) (A) (A) (A)
 Beta  Orbitals:
       Occupied  (A) (A) (A) (A) (A) (A) (A) (A) (A) (A) (A) (A)
                 (A) (A) (A)
       Virtual   (A) (A) (A) (A) (A) (A) (A) (A) (A) (A) (A) (A)
                 (A) (A) (A) (A) (A) (A) (A) (A) (A) (A) (A) (A)
                 (A) (A) (A) (A) (A) (A) (A) (A) (A) (A) (A) (A)
                 (A) (A) (A) (A) (A) (A) (A) (A) (A) (A) (A) (A)
                 (A) (A) (A) (A) (A) (A) (A) (A) (A) (A) (A) (A)
                 (A) (A) (A) (A) (A)
 The electronic state is 1-A.
 Alpha  occ. eigenvalues --  -19.20382 -19.20380 -10.31033 -10.30977  -1.10347
 Alpha  occ. eigenvalues --   -1.06511  -0.76886  -0.58831  -0.56786  -0.48552
 Alpha  occ. eigenvalues --   -0.46578  -0.45819  -0.39049  -0.31903  -0.29484
 Alpha virt. eigenvalues --   -0.14996  -0.00192   0.01606   0.02850   0.03105
 Alpha virt. eigenvalues --    0.04638   0.07474   0.07511   0.09498   0.14746
 Alpha virt. eigenvalues --    0.16850   0.19227   0.20438   0.21396   0.23851
 Alpha virt. eigenvalues --    0.24048   0.26432   0.27117   0.29382   0.32496
 Alpha virt. eigenvalues --    0.35442   0.40452   0.52447   0.60563   0.60615
 Alpha virt. eigenvalues --    0.65478   0.74919   0.77358   0.81818   0.88333
 Alpha virt. eigenvalues --    0.99380   1.10817   1.13062   1.13747   1.15151
 Alpha virt. eigenvalues --    1.21057   1.21253   1.27183   1.29520   1.31835
 Alpha virt. eigenvalues --    1.40300   1.46761   1.54272   1.64558   1.66413
 Alpha virt. eigenvalues --    1.71462   1.76875   1.84149   1.87431   2.01045
 Alpha virt. eigenvalues --    2.06649   2.08909   2.24952   2.39451   2.39949
 Alpha virt. eigenvalues --    2.49593   2.64863   2.68025   2.89938   3.03038
 Alpha virt. eigenvalues --    3.18690   3.98779   4.19327   4.26428   4.43584
  Beta  occ. eigenvalues --  -19.20382 -19.20380 -10.31033 -10.30977  -1.10347
  Beta  occ. eigenvalues --   -1.06511  -0.76886  -0.58831  -0.56786  -0.48552
  Beta  occ. eigenvalues --   -0.46578  -0.45819  -0.39049  -0.31903  -0.29484
  Beta virt. eigenvalues --   -0.14996  -0.00192   0.01606   0.02850   0.03105
  Beta virt. eigenvalues --    0.04638   0.07474   0.07511   0.09498   0.14746
  Beta virt. eigenvalues --    0.16850   0.19227   0.20438   0.21396   0.23851
  Beta virt. eigenvalues --    0.24048   0.26432   0.27117   0.29382   0.32496
  Beta virt. eigenvalues --    0.35442   0.40452   0.52447   0.60563   0.60615
  Beta virt. eigenvalues --    0.65478   0.74919   0.77358   0.81818   0.88333
  Beta virt. eigenvalues --    0.99380   1.10817   1.13062   1.13747   1.15151
  Beta virt. eigenvalues --    1.21057   1.21253   1.27183   1.29520   1.31835
  Beta virt. eigenvalues --    1.40300   1.46761   1.54272   1.64558   1.66413
  Beta virt. eigenvalues --    1.71462   1.76875   1.84149   1.87431   2.01045
  Beta virt. eigenvalues --    2.06649   2.08909   2.24952   2.39451   2.39949
  Beta virt. eigenvalues --    2.49593   2.64863   2.68025   2.89938   3.03038
  Beta virt. eigenvalues --    3.18690   3.98779   4.19327   4.26428   4.43584
          Condensed to atoms (all electrons):
               1          2          3          4          5          6
     1  C    5.460486  -0.214949  -0.122956   0.529326   0.392302  -0.174445
     2  C   -0.214949   5.459525   0.392582  -0.174329  -0.122712   0.529384
     3  H   -0.122956   0.392582   0.594766   0.004796   0.010281  -0.060625
     4  O    0.529326  -0.174329   0.004796   8.012630  -0.060596  -0.000145
     5  H    0.392302  -0.122712   0.010281  -0.060596   0.594677   0.004816
     6  O   -0.174445   0.529384  -0.060625  -0.000145   0.004816   8.012456
          Atomic-Atomic Spin Densities.
               1          2          3          4          5          6
     1  C    0.000000  -0.000000  -0.000000   0.000000   0.000000   0.000000
     2  C   -0.000000   0.000000   0.000000  -0.000000  -0.000000  -0.000000
     3  H   -0.000000   0.000000  -0.000000   0.000000   0.000000  -0.000000
     4  O    0.000000  -0.000000   0.000000  -0.000000   0.000000   0.000000
     5  H    0.000000  -0.000000   0.000000   0.000000  -0.000000   0.000000
     6  O    0.000000  -0.000000  -0.000000   0.000000   0.000000  -0.000000
 Mulliken charges and spin densities:
               1          2
     1  C    0.130236   0.000000
     2  C    0.130500  -0.000000
     3  H    0.181156  -0.000000
     4  O   -0.311682  -0.000000
     5  H    0.181232   0.000000
     6  O   -0.311441   0.000000
 Sum of Mulliken charges =   0.00000  -0.00000
 Mulliken charges and spin densities with hydrogens summed into heavy atoms:
               1          2
     1  C    0.311468   0.000000
     2  C    0.311655  -0.000000
     4  O   -0.311682  -0.000000
     6  O   -0.311441   0.000000
 Electronic spatial extent (au):  <R**2>=            226.3362
 Charge=              0.0000 electrons
 Dipole moment (field-independent basis, Debye):
    X=              0.0040    Y=              3.8656    Z=             -0.0002  Tot=              3.8656
 Quadrupole moment (field-independent basis, Debye-Ang):
   XX=            -26.4557   YY=            -22.0199   ZZ=            -21.3830
   XY=              0.0007   XZ=              0.0010   YZ=              0.0002
 Traceless Quadrupole moment (field-independent basis, Debye-Ang):
   XX=             -3.1695   YY=              1.2663   ZZ=              1.9032
   XY=              0.0007   XZ=              0.0010   YZ=              0.0002
 Octapole moment (field-independent basis, Debye-Ang**2):
  XXX=              0.0170  YYY=              0.0789  ZZZ=              0.0003  XYY=             -0.0028
  XXY=              5.0030  XXZ=             -0.0005  XZZ=              0.0021  YZZ=             -1.0899
  YYZ=              0.0013  XYZ=             -0.0007
 Hexadecapole moment (field-independent basis, Debye-Ang**3):
 XXXX=           -194.9472 YYYY=            -75.1212 ZZZZ=            -19.2220 XXXY=              0.0067
 XXXZ=             -0.0018 YYYX=             -0.0070 YYYZ=              0.0008 ZZZX=             -0.0022
 ZZZY=             -0.0007 XXYY=            -40.6448 XXZZ=            -32.5402 YYZZ=            -15.8798
 XXYZ=              0.0017 YYXZ=             -0.0010 ZZXY=             -0.0007
 N-N= 1.059795382382D+02 E-N=-7.457973863656D+02  KE= 2.259557116264D+02
                          Isotropic Fermi Contact Couplings
        Atom                 a.u.       MegaHertz       Gauss      10(-4) cm-1
     1  C(13)             -0.00000      -0.00000      -0.00000      -0.00000
     2  C(13)             -0.00000      -0.00000      -0.00000      -0.00000
     3  H(1)              -0.00000      -0.00000      -0.00000      -0.00000
     4  O(17)              0.00000      -0.00000      -0.00000      -0.00000
     5  H(1)              -0.00000      -0.00000      -0.00000      -0.00000
     6  O(17)              0.00000      -0.00000      -0.00000      -0.00000
 --------------------------------------------------------
       Center         ----  Spin Dipole Couplings  ----
                      3XX-RR        3YY-RR        3ZZ-RR
 --------------------------------------------------------
     1   Atom        0.000000      0.000000      0.000000
     2   Atom        0.000000      0.000000      0.000000
     3   Atom        0.000000      0.000000      0.000000
     4   Atom        0.000000      0.000000      0.000000
     5   Atom        0.000000      0.000000      0.000000
     6   Atom        0.000000      0.000000      0.000000
 --------------------------------------------------------
                        XY            XZ            YZ
 --------------------------------------------------------
     1   Atom        0.000000      0.000000      0.000000
     2   Atom        0.000000      0.000000      0.000000
     3   Atom        0.000000      0.000000      0.000000
     4   Atom        0.000000      0.000000      0.000000
     5   Atom        0.000000      0.000000      0.000000
     6   Atom        0.000000      0.000000      0.000000
 --------------------------------------------------------


 ---------------------------------------------------------------------------------
              Anisotropic Spin Dipole Couplings in Principal Axis System
 ---------------------------------------------------------------------------------

       Atom             a.u.   MegaHertz   Gauss  10(-4) cm-1        Axes

              Baa     0.0000     0.000     0.000     0.000  1.0000  0.0000  0.0000
     1 C(13)  Bbb     0.0000     0.000     0.000     0.000 -0.0000  1.0000  0.0000
              Bcc     0.0000     0.000     0.000     0.000  0.0000  0.0000  1.0000
 
              Baa     0.0000     0.000     0.000     0.000  1.0000  0.0000  0.0000
     2 C(13)  Bbb     0.0000     0.000     0.000     0.000 -0.0000  1.0000  0.0000
              Bcc     0.0000     0.000     0.000     0.000  0.0000  0.0000  1.0000
 
              Baa     0.0000     0.000     0.000     0.000  1.0000  0.0000  0.0000
     3 H(1)   Bbb     0.0000     0.000     0.000     0.000 -0.0000  1.0000  0.0000
              Bcc     0.0000     0.000     0.000     0.000  0.0000  0.0000  1.0000
 
              Baa     0.0000    -0.000    -0.000    -0.000  1.0000  0.0000  0.0000
     4 O(17)  Bbb     0.0000    -0.000    -0.000    -0.000 -0.0000  1.0000  0.0000
              Bcc     0.0000    -0.000    -0.000    -0.000  0.0000  0.0000  1.0000
 
              Baa     0.0000     0.000     0.000     0.000  1.0000  0.0000  0.0000
     5 H(1)   Bbb     0.0000     0.000     0.000     0.000 -0.0000  1.0000  0.0000
              Bcc     0.0000     0.000     0.000     0.000  0.0000  0.0000  1.0000
 
              Baa     0.0000    -0.000    -0.000    -0.000  1.0000  0.0000  0.0000
     6 O(17)  Bbb     0.0000    -0.000    -0.000    -0.000 -0.0000  1.0000  0.0000
              Bcc     0.0000    -0.000    -0.000    -0.000  0.0000  0.0000  1.0000
 

 ---------------------------------------------------------------------------------

 1\1\GINC-NODE32\SP\UB3LYP\6-31+G(d)\C2H2O2\YANZ\12-Oct-2023\0\\# ub3ly
 p/6-31+g(d)\\tmpdir/M2_ref_5.gjf\\0,1\C,0,2.73397309,0.74492017,-0.019
 98226\C,0,2.76086323,-0.64577722,-0.05543502\H,0,3.71236256,-1.1691843
 2,-0.07323601\O,0,1.65892675,1.3453336,0.00143945\H,0,3.66448683,1.304
 80451,-0.00921086\O,0,1.71021973,-1.2866571,-0.06737309\\Version=ES64L
 -G16RevA.03\State=1-A\HF=-227.81087\S2=0.\S2-1=0.\S2A=0.\RMSD=9.277e-1
 0\Dipole=1.520564,0.0285373,-0.0066112\Quadrupole=0.9402212,-2.352604,
 1.4123828,0.0642145,0.0041011,-0.0986952\PG=C01 [X(C2H2O2)]\\@


 The juvenile sea squirt wanders through the sea searching
 for a suitable rock or hunk of coral to cling to and make
 its home for life.  For this task it has a rudimentary
 nervous system.  When it finds its spot and takes root, it
 doesn't need its brain any more so it eats it.
 It's rather like getting tenure.

                               -- source unknown
 Job cpu time:       0 days  0 hours  0 minutes 26.4 seconds.
 Elapsed time:       0 days  0 hours  0 minutes 13.5 seconds.
 File lengths (MBytes):  RWF=     10 Int=      0 D2E=      0 Chk=      2 Scr=      1
 Normal termination of Gaussian 16 at Thu Oct 12 15:11:40 2023.
