 Entering Gaussian System, Link 0=g16
 Initial command:
 /share/apps/gaussian/g16/l1.exe "/tmp/58286.mgr/Gau-29763.inp" -scrdir="/tmp/58286.mgr/"
 Entering Link 1 = /share/apps/gaussian/g16/l1.exe PID=     29775.
  
 Copyright (c) 1988,1990,1992,1993,1995,1998,2003,2009,2016,
            Gaussian, Inc.  All Rights Reserved.
  
 This is part of the Gaussian(R) 16 program.  It is based on
 the Gaussian(R) 09 system (copyright 2009, Gaussian, Inc.),
 the Gaussian(R) 03 system (copyright 2003, Gaussian, Inc.),
 the Gaussian(R) 98 system (copyright 1998, Gaussian, Inc.),
 the Gaussian(R) 94 system (copyright 1995, Gaussian, Inc.),
 the Gaussian 92(TM) system (copyright 1992, Gaussian, Inc.),
 the Gaussian 90(TM) system (copyright 1990, Gaussian, Inc.),
 the Gaussian 88(TM) system (copyright 1988, Gaussian, Inc.),
 the Gaussian 86(TM) system (copyright 1986, Carnegie Mellon
 University), and the Gaussian 82(TM) system (copyright 1983,
 Carnegie Mellon University). Gaussian is a federally registered
 trademark of Gaussian, Inc.
  
 This software contains proprietary and confidential information,
 including trade secrets, belonging to Gaussian, Inc.
  
 This software is provided under written license and may be
 used, copied, transmitted, or stored only in accord with that
 written license.
  
 The following legend is applicable only to US Government
 contracts under FAR:
  
                    RESTRICTED RIGHTS LEGEND
  
 Use, reproduction and disclosure by the US Government is
 subject to restrictions as set forth in subparagraphs (a)
 and (c) of the Commercial Computer Software - Restricted
 Rights clause in FAR 52.227-19.
  
 Gaussian, Inc.
 340 Quinnipiac St., Bldg. 40, Wallingford CT 06492
  
  
 ---------------------------------------------------------------
 Warning -- This program may not be used in any manner that
 competes with the business of Gaussian, Inc. or will provide
 assistance to any competitor of Gaussian, Inc.  The licensee
 of this program is prohibited from giving any competitor of
 Gaussian, Inc. access to this program.  By using this program,
 the user acknowledges that Gaussian, Inc. is engaged in the
 business of creating and licensing software in the field of
 computational chemistry and represents and warrants to the
 licensee that it is not a competitor of Gaussian, Inc. and that
 it will not use this program in any manner prohibited above.
 ---------------------------------------------------------------
  

 Cite this work as:
 Gaussian 16, Revision A.03,
 M. J. Frisch, G. W. Trucks, H. B. Schlegel, G. E. Scuseria, 
 M. A. Robb, J. R. Cheeseman, G. Scalmani, V. Barone, 
 G. A. Petersson, H. Nakatsuji, X. Li, M. Caricato, A. V. Marenich, 
 J. Bloino, B. G. Janesko, R. Gomperts, B. Mennucci, H. P. Hratchian, 
 J. V. Ortiz, A. F. Izmaylov, J. L. Sonnenberg, D. Williams-Young, 
 F. Ding, F. Lipparini, F. Egidi, J. Goings, B. Peng, A. Petrone, 
 T. Henderson, D. Ranasinghe, V. G. Zakrzewski, J. Gao, N. Rega, 
 G. Zheng, W. Liang, M. Hada, M. Ehara, K. Toyota, R. Fukuda, 
 J. Hasegawa, M. Ishida, T. Nakajima, Y. Honda, O. Kitao, H. Nakai, 
 T. Vreven, K. Throssell, J. A. Montgomery, Jr., J. E. Peralta, 
 F. Ogliaro, M. J. Bearpark, J. J. Heyd, E. N. Brothers, K. N. Kudin, 
 V. N. Staroverov, T. A. Keith, R. Kobayashi, J. Normand, 
 K. Raghavachari, A. P. Rendell, J. C. Burant, S. S. Iyengar, 
 J. Tomasi, M. Cossi, J. M. Millam, M. Klene, C. Adamo, R. Cammi, 
 J. W. Ochterski, R. L. Martin, K. Morokuma, O. Farkas, 
 J. B. Foresman, and D. J. Fox, Gaussian, Inc., Wallingford CT, 2016.
 
 ******************************************
 Gaussian 16:  ES64L-G16RevA.03 25-Dec-2016
                12-Oct-2023 
 ******************************************
 %nprocshared=2
 Will use up to    2 processors via shared memory.
 %mem=2GB
 ------------------
 # ub3lyp/6-31+g(d)
 ------------------
 1/38=1,172=1/1;
 2/12=2,17=6,18=5,40=1/2;
 3/5=1,6=6,7=11,11=2,25=1,30=1,74=-5,116=2/1,2,3;
 4//1;
 5/5=2,38=5/2;
 6/7=2,8=2,9=2,10=2,28=1/1;
 99/5=1,9=1/99;
 --------------------
 tmpdir/M2_ref_18.gjf
 --------------------
 Symbolic Z-matrix:
 Charge =  0 Multiplicity = 1
 C                     0.35803  -0.6951   -0.06228 
 C                     0.33039   0.70664  -0.0169 
 C                     1.51457   1.42596   0.00432 
 H                     1.23473  -1.18561  -0.06713 
 H                    -0.64899  -1.14631  -0.03801 
 H                    -0.68507   1.12345   0.01035 
 O                     2.58962   0.82554  -0.01711 
 H                     1.49361   2.51222   0.04105 
 
                          Input orientation:                          
 ---------------------------------------------------------------------
 Center     Atomic      Atomic             Coordinates (Angstroms)
 Number     Number       Type             X           Y           Z
 ---------------------------------------------------------------------
      1          6           0        0.358030   -0.695095   -0.062281
      2          6           0        0.330395    0.706637   -0.016895
      3          6           0        1.514569    1.425958    0.004316
      4          1           0        1.234735   -1.185615   -0.067128
      5          1           0       -0.648988   -1.146310   -0.038009
      6          1           0       -0.685075    1.123452    0.010351
      7          8           0        2.589615    0.825544   -0.017106
      8          1           0        1.493615    2.512221    0.041045
 ---------------------------------------------------------------------
                    Distance matrix (angstroms):
                    1          2          3          4          5
     1  C    0.000000
     2  C    1.402740   0.000000
     3  C    2.416792   1.385691   0.000000
     4  H    1.004611   2.097849   2.627493   0.000000
     5  H    1.103752   2.095960   3.361447   1.884357   0.000000
     6  H    2.097727   1.098024   2.220355   3.003908   2.270564
     7  O    2.700807   2.262347   1.231536   2.425482   3.791727
     8  H    3.403984   2.148621   1.087087   3.708465   4.240500
                    6          7          8
     6  H    0.000000
     7  O    3.288327   0.000000
     8  H    2.583856   2.012332   0.000000
 Stoichiometry    C3H4O
 Framework group  C1[X(C3H4O)]
 Deg. of freedom    18
 Full point group                 C1      NOp   1
 Largest Abelian subgroup         C1      NOp   1
 Largest concise Abelian subgroup C1      NOp   1
                         Standard orientation:                         
 ---------------------------------------------------------------------
 Center     Atomic      Atomic             Coordinates (Angstroms)
 Number     Number       Type             X           Y           Z
 ---------------------------------------------------------------------
      1          6           0       -1.406668   -0.497688   -0.006215
      2          6           0       -0.580796    0.636158   -0.003494
      3          6           0        0.797523    0.493463    0.000352
      4          1           0       -1.004873   -1.418353    0.007140
      5          1           0       -2.481137   -0.247450    0.027934
      6          1           0       -1.137326    1.582633    0.007253
      7          8           0        1.290633   -0.635041    0.001224
      8          1           0        1.437919    1.371892    0.004019
 ---------------------------------------------------------------------
 Rotational constants (GHZ):          21.4215806           6.9617855           5.2543745
 Standard basis: 6-31+G(d) (6D, 7F)
 There are    84 symmetry adapted cartesian basis functions of A   symmetry.
 There are    84 symmetry adapted basis functions of A   symmetry.
    84 basis functions,   144 primitive gaussians,    84 cartesian basis functions
    15 alpha electrons       15 beta electrons
       nuclear repulsion energy       106.2687281662 Hartrees.
 NAtoms=    8 NActive=    8 NUniq=    8 SFac= 1.00D+00 NAtFMM=   60 NAOKFM=F Big=F
 Integral buffers will be    131072 words long.
 Raffenetti 2 integral format.
 Two-electron integral symmetry is turned on.
 One-electron integrals computed using PRISM.
 NBasis=    84 RedAO= T EigKep=  1.26D-04  NBF=    84
 NBsUse=    84 1.00D-06 EigRej= -1.00D+00 NBFU=    84
 ExpMin= 4.38D-02 ExpMax= 5.48D+03 ExpMxC= 8.25D+02 IAcc=3 IRadAn=         5 AccDes= 0.00D+00
 Harris functional with IExCor=  402 and IRadAn=       5 diagonalized for initial guess.
 HarFok:  IExCor=  402 AccDes= 0.00D+00 IRadAn=         5 IDoV= 1 UseB2=F ITyADJ=14
 ICtDFT=  3500011 ScaDFX=  1.000000  1.000000  1.000000  1.000000
 FoFCou: FMM=F IPFlag=           0 FMFlag=      100000 FMFlg1=           0
         NFxFlg=           0 DoJE=T BraDBF=F KetDBF=T FulRan=T
         wScrn=  0.000000 ICntrl=       500 IOpCl=  0 I1Cent=   200000004 NGrid=           0
         NMat0=    1 NMatS0=      1 NMatT0=    0 NMatD0=    1 NMtDS0=    0 NMtDT0=    0
 Petite list used in FoFCou.
 Initial guess <Sx>= 0.0000 <Sy>= 0.0000 <Sz>= 0.0000 <S**2>=-0.0000 S=-0.0000
 Keep R1 and R2 ints in memory in canonical form, NReq=14566444.
 Requested convergence on RMS density matrix=1.00D-08 within 128 cycles.
 Requested convergence on MAX density matrix=1.00D-06.
 Requested convergence on             energy=1.00D-06.
 No special actions if energy rises.
 SCF Done:  E(UB3LYP) =  -191.900018723     A.U. after   12 cycles
            NFock= 12  Conv=0.23D-08     -V/T= 2.0087
 <Sx>= 0.0000 <Sy>= 0.0000 <Sz>= 0.0000 <S**2>=-0.0000 S=-0.0000
 <L.S>= 0.000000000000E+00
 Annihilation of the first spin contaminant:
 S**2 before annihilation    -0.0000,   after     0.0000

 **********************************************************************

            Population analysis using the SCF density.

 **********************************************************************

 Orbital symmetries:
 Alpha Orbitals:
       Occupied  (A) (A) (A) (A) (A) (A) (A) (A) (A) (A) (A) (A)
                 (A) (A) (A)
       Virtual   (A) (A) (A) (A) (A) (A) (A) (A) (A) (A) (A) (A)
                 (A) (A) (A) (A) (A) (A) (A) (A) (A) (A) (A) (A)
                 (A) (A) (A) (A) (A) (A) (A) (A) (A) (A) (A) (A)
                 (A) (A) (A) (A) (A) (A) (A) (A) (A) (A) (A) (A)
                 (A) (A) (A) (A) (A) (A) (A) (A) (A) (A) (A) (A)
                 (A) (A) (A) (A) (A) (A) (A) (A) (A)
 Beta  Orbitals:
       Occupied  (A) (A) (A) (A) (A) (A) (A) (A) (A) (A) (A) (A)
                 (A) (A) (A)
       Virtual   (A) (A) (A) (A) (A) (A) (A) (A) (A) (A) (A) (A)
                 (A) (A) (A) (A) (A) (A) (A) (A) (A) (A) (A) (A)
                 (A) (A) (A) (A) (A) (A) (A) (A) (A) (A) (A) (A)
                 (A) (A) (A) (A) (A) (A) (A) (A) (A) (A) (A) (A)
                 (A) (A) (A) (A) (A) (A) (A) (A) (A) (A) (A) (A)
                 (A) (A) (A) (A) (A) (A) (A) (A) (A)
 The electronic state is 1-A.
 Alpha  occ. eigenvalues --  -19.15324 -10.27828 -10.22905 -10.21746  -1.04639
 Alpha  occ. eigenvalues --   -0.80450  -0.68289  -0.55971  -0.53410  -0.45722
 Alpha  occ. eigenvalues --   -0.42379  -0.40798  -0.40084  -0.28626  -0.26878
 Alpha virt. eigenvalues --   -0.09843   0.00424   0.02409   0.03745   0.04199
 Alpha virt. eigenvalues --    0.06188   0.06195   0.06955   0.09200   0.09522
 Alpha virt. eigenvalues --    0.11782   0.12115   0.13788   0.16151   0.19149
 Alpha virt. eigenvalues --    0.21322   0.24493   0.25704   0.25842   0.26910
 Alpha virt. eigenvalues --    0.29638   0.32392   0.32512   0.41464   0.46581
 Alpha virt. eigenvalues --    0.63214   0.64824   0.68002   0.68131   0.71402
 Alpha virt. eigenvalues --    0.71455   0.76888   0.87142   0.90522   0.91722
 Alpha virt. eigenvalues --    0.95563   1.04359   1.06790   1.09938   1.18126
 Alpha virt. eigenvalues --    1.21719   1.26796   1.29061   1.32395   1.34982
 Alpha virt. eigenvalues --    1.41005   1.54368   1.59091   1.64088   1.78768
 Alpha virt. eigenvalues --    1.82497   1.85519   1.94646   1.98140   2.08506
 Alpha virt. eigenvalues --    2.21522   2.26386   2.31586   2.32300   2.48878
 Alpha virt. eigenvalues --    2.56785   2.61311   2.78701   2.99292   3.12163
 Alpha virt. eigenvalues --    4.11062   4.17402   4.27536   4.42606
  Beta  occ. eigenvalues --  -19.15324 -10.27828 -10.22905 -10.21746  -1.04639
  Beta  occ. eigenvalues --   -0.80450  -0.68289  -0.55971  -0.53410  -0.45722
  Beta  occ. eigenvalues --   -0.42379  -0.40798  -0.40084  -0.28626  -0.26878
  Beta virt. eigenvalues --   -0.09843   0.00424   0.02409   0.03745   0.04199
  Beta virt. eigenvalues --    0.06188   0.06195   0.06955   0.09200   0.09522
  Beta virt. eigenvalues --    0.11782   0.12115   0.13788   0.16151   0.19149
  Beta virt. eigenvalues --    0.21322   0.24493   0.25704   0.25842   0.26910
  Beta virt. eigenvalues --    0.29638   0.32392   0.32512   0.41464   0.46581
  Beta virt. eigenvalues --    0.63214   0.64824   0.68002   0.68131   0.71402
  Beta virt. eigenvalues --    0.71455   0.76888   0.87142   0.90522   0.91722
  Beta virt. eigenvalues --    0.95563   1.04359   1.06790   1.09938   1.18126
  Beta virt. eigenvalues --    1.21719   1.26796   1.29061   1.32395   1.34982
  Beta virt. eigenvalues --    1.41005   1.54368   1.59091   1.64088   1.78768
  Beta virt. eigenvalues --    1.82497   1.85519   1.94646   1.98140   2.08506
  Beta virt. eigenvalues --    2.21522   2.26386   2.31586   2.32300   2.48878
  Beta virt. eigenvalues --    2.56785   2.61311   2.78701   2.99292   3.12163
  Beta virt. eigenvalues --    4.11062   4.17402   4.27536   4.42606
          Condensed to atoms (all electrons):
               1          2          3          4          5          6
     1  C    5.093057   0.422871   0.077274   0.411594   0.362386  -0.002432
     2  C    0.422871   5.794775  -0.017662  -0.063563  -0.048335   0.264720
     3  C    0.077274  -0.017662   4.988538  -0.003761   0.018337   0.019618
     4  H    0.411594  -0.063563  -0.003761   0.443047  -0.027425   0.004604
     5  H    0.362386  -0.048335   0.018337  -0.027425   0.503606  -0.006137
     6  H   -0.002432   0.264720   0.019618   0.004604  -0.006137   0.521588
     7  O    0.032081  -0.223707   0.473854   0.002006   0.002023   0.005401
     8  H    0.024845  -0.204729   0.455164   0.000035  -0.000075   0.001751
               7          8
     1  C    0.032081   0.024845
     2  C   -0.223707  -0.204729
     3  C    0.473854   0.455164
     4  H    0.002006   0.000035
     5  H    0.002023  -0.000075
     6  H    0.005401   0.001751
     7  O    8.200566  -0.065822
     8  H   -0.065822   0.624993
          Atomic-Atomic Spin Densities.
               1          2          3          4          5          6
     1  C    0.000000  -0.000000   0.000000  -0.000000  -0.000000   0.000000
     2  C   -0.000000   0.000000  -0.000000   0.000000   0.000000  -0.000000
     3  C    0.000000  -0.000000  -0.000000  -0.000000  -0.000000   0.000000
     4  H   -0.000000   0.000000  -0.000000  -0.000000  -0.000000   0.000000
     5  H   -0.000000   0.000000  -0.000000  -0.000000   0.000000  -0.000000
     6  H    0.000000  -0.000000   0.000000   0.000000  -0.000000   0.000000
     7  O    0.000000  -0.000000   0.000000   0.000000   0.000000   0.000000
     8  H    0.000000  -0.000000   0.000000  -0.000000   0.000000  -0.000000
               7          8
     1  C    0.000000   0.000000
     2  C   -0.000000  -0.000000
     3  C    0.000000   0.000000
     4  H    0.000000  -0.000000
     5  H    0.000000   0.000000
     6  H    0.000000  -0.000000
     7  O    0.000000   0.000000
     8  H    0.000000  -0.000000
 Mulliken charges and spin densities:
               1          2
     1  C   -0.421676   0.000000
     2  C    0.075629  -0.000000
     3  C   -0.011361   0.000000
     4  H    0.233465  -0.000000
     5  H    0.195621  -0.000000
     6  H    0.190886  -0.000000
     7  O   -0.426402   0.000000
     8  H    0.163838  -0.000000
 Sum of Mulliken charges =  -0.00000   0.00000
 Mulliken charges and spin densities with hydrogens summed into heavy atoms:
               1          2
     1  C    0.007410   0.000000
     2  C    0.266516  -0.000000
     3  C    0.152477   0.000000
     7  O   -0.426402   0.000000
 Electronic spatial extent (au):  <R**2>=            255.9534
 Charge=             -0.0000 electrons
 Dipole moment (field-independent basis, Debye):
    X=             -2.3699    Y=              1.8537    Z=              0.0379  Tot=              3.0090
 Quadrupole moment (field-independent basis, Debye-Ang):
   XX=            -24.2476   YY=            -22.7544   ZZ=            -25.2689
   XY=              3.0985   XZ=             -0.0884   YZ=              0.0030
 Traceless Quadrupole moment (field-independent basis, Debye-Ang):
   XX=             -0.1573   YY=              1.3359   ZZ=             -1.1786
   XY=              3.0985   XZ=             -0.0884   YZ=              0.0030
 Octapole moment (field-independent basis, Debye-Ang**2):
  XXX=             -6.4822  YYY=             -1.1783  ZZZ=              0.0787  XYY=             -0.6671
  XXY=              3.9592  XXZ=              0.2129  XZZ=              3.4461  YZZ=             -1.0692
  YYZ=              0.0686  XYZ=              0.0098
 Hexadecapole moment (field-independent basis, Debye-Ang**3):
 XXXX=           -213.7985 YYYY=            -90.1022 ZZZZ=            -28.6172 XXXY=              3.2934
 XXXZ=             -0.6044 YYYX=             -0.5920 YYYZ=             -0.0050 ZZZX=             -0.1219
 ZZZY=             -0.0042 XXYY=            -51.5837 XXZZ=            -43.9344 YYZZ=            -21.1330
 XXYZ=             -0.0113 YYXZ=             -0.0801 ZZXY=             -0.2500
 N-N= 1.062687281662D+02 E-N=-6.597844861731D+02  KE= 1.902357921822D+02
                          Isotropic Fermi Contact Couplings
        Atom                 a.u.       MegaHertz       Gauss      10(-4) cm-1
     1  C(13)             -0.00000      -0.00000      -0.00000      -0.00000
     2  C(13)             -0.00000      -0.00000      -0.00000      -0.00000
     3  C(13)              0.00000       0.00000       0.00000       0.00000
     4  H(1)               0.00000       0.00000       0.00000       0.00000
     5  H(1)              -0.00000      -0.00000      -0.00000      -0.00000
     6  H(1)              -0.00000      -0.00000      -0.00000      -0.00000
     7  O(17)             -0.00000       0.00000       0.00000       0.00000
     8  H(1)              -0.00000      -0.00000      -0.00000      -0.00000
 --------------------------------------------------------
       Center         ----  Spin Dipole Couplings  ----
                      3XX-RR        3YY-RR        3ZZ-RR
 --------------------------------------------------------
     1   Atom        0.000000     -0.000000      0.000000
     2   Atom       -0.000000     -0.000000      0.000000
     3   Atom       -0.000000      0.000000     -0.000000
     4   Atom       -0.000000      0.000000     -0.000000
     5   Atom        0.000000     -0.000000     -0.000000
     6   Atom        0.000000      0.000000     -0.000000
     7   Atom        0.000000     -0.000000      0.000000
     8   Atom        0.000000     -0.000000     -0.000000
 --------------------------------------------------------
                        XY            XZ            YZ
 --------------------------------------------------------
     1   Atom       -0.000000     -0.000000     -0.000000
     2   Atom        0.000000      0.000000     -0.000000
     3   Atom        0.000000      0.000000      0.000000
     4   Atom       -0.000000      0.000000     -0.000000
     5   Atom       -0.000000     -0.000000      0.000000
     6   Atom       -0.000000     -0.000000      0.000000
     7   Atom        0.000000     -0.000000      0.000000
     8   Atom        0.000000     -0.000000     -0.000000
 --------------------------------------------------------


 ---------------------------------------------------------------------------------
              Anisotropic Spin Dipole Couplings in Principal Axis System
 ---------------------------------------------------------------------------------

       Atom             a.u.   MegaHertz   Gauss  10(-4) cm-1        Axes

              Baa    -0.0000    -0.000    -0.000    -0.000  0.4060  0.9132  0.0361
     1 C(13)  Bbb     0.0000     0.000     0.000     0.000  0.0051 -0.0417  0.9991
              Bcc     0.0000     0.000     0.000     0.000  0.9139 -0.4054 -0.0216
 
              Baa    -0.0000    -0.000    -0.000    -0.000 -0.6984  0.7156  0.0136
     2 C(13)  Bbb     0.0000     0.000     0.000     0.000  0.0056 -0.0136  0.9999
              Bcc     0.0000     0.000     0.000     0.000  0.7157  0.6984  0.0055
 
              Baa    -0.0000    -0.000    -0.000    -0.000  0.8023 -0.5678 -0.1842
     3 C(13)  Bbb    -0.0000    -0.000    -0.000    -0.000  0.1199 -0.1490  0.9815
              Bcc     0.0000     0.000     0.000     0.000  0.5848  0.8095  0.0515
 
              Baa    -0.0000    -0.000    -0.000    -0.000  0.9610  0.1531 -0.2301
     4 H(1)   Bbb    -0.0000    -0.000    -0.000    -0.000  0.2245  0.0535  0.9730
              Bcc     0.0000     0.000     0.000     0.000 -0.1613  0.9868 -0.0170
 
              Baa    -0.0000    -0.000    -0.000    -0.000  0.2606  0.9654 -0.0102
     5 H(1)   Bbb    -0.0000    -0.000    -0.000    -0.000  0.0243  0.0040  0.9997
              Bcc     0.0000     0.000     0.000     0.000  0.9651 -0.2608 -0.0224
 
              Baa    -0.0000    -0.000    -0.000    -0.000 -0.0098 -0.0249  0.9996
     6 H(1)   Bbb    -0.0000    -0.000    -0.000    -0.000  0.9067  0.4213  0.0193
              Bcc     0.0000     0.000     0.000     0.000 -0.4216  0.9066  0.0185
 
              Baa    -0.0000     0.000     0.000     0.000 -0.0518  0.9849 -0.1649
     7 O(17)  Bbb     0.0000    -0.000    -0.000    -0.000  0.0064  0.1655  0.9862
              Bcc     0.0000    -0.000    -0.000    -0.000  0.9986  0.0501 -0.0149
 
              Baa    -0.0000    -0.000    -0.000    -0.000 -0.1888  0.8212  0.5385
     8 H(1)   Bbb    -0.0000    -0.000    -0.000    -0.000  0.4158 -0.4300  0.8014
              Bcc     0.0000     0.000     0.000     0.000  0.8896  0.3752 -0.2603
 

 ---------------------------------------------------------------------------------

 1\1\GINC-NODE32\SP\UB3LYP\6-31+G(d)\C3H4O1\YANZ\12-Oct-2023\0\\# ub3ly
 p/6-31+g(d)\\tmpdir/M2_ref_18.gjf\\0,1\C,0,0.35803021,-0.69509548,-0.0
 6228099\C,0,0.33039499,0.70663737,-0.01689504\C,0,1.51456879,1.4259575
 3,0.00431597\H,0,1.23473462,-1.18561468,-0.06712752\H,0,-0.64898759,-1
 .14630964,-0.03800929\H,0,-0.68507474,1.12345238,0.01035115\O,0,2.5896
 1513,0.8255441,-0.01710574\H,0,1.49361496,2.51222136,0.0410451\\Versio
 n=ES64L-G16RevA.03\State=1-A\HF=-191.9000187\S2=0.\S2-1=0.\S2A=0.\RMSD
 =2.308e-09\Dipole=-1.1835478,0.016645,0.0198806\Quadrupole=-1.9303469,
 2.8051392,-0.8747923,0.0863497,-0.0471163,0.0735197\PG=C01 [X(C3H4O1)]
 \\@


 IF YOU GIVE A BOY AND A PIG EVERYTHING THEY WANT,
 YOU'LL GET A BAD BOY AND A GOOD PIG.
 Job cpu time:       0 days  0 hours  0 minutes 38.9 seconds.
 Elapsed time:       0 days  0 hours  0 minutes 20.1 seconds.
 File lengths (MBytes):  RWF=     10 Int=      0 D2E=      0 Chk=      2 Scr=      1
 Normal termination of Gaussian 16 at Thu Oct 12 15:11:20 2023.
