 Entering Gaussian System, Link 0=g16
 Initial command:
 /share/apps/gaussian/g16/l1.exe "/tmp/58286.mgr/Gau-29960.inp" -scrdir="/tmp/58286.mgr/"
 Entering Link 1 = /share/apps/gaussian/g16/l1.exe PID=     29961.
  
 Copyright (c) 1988,1990,1992,1993,1995,1998,2003,2009,2016,
            Gaussian, Inc.  All Rights Reserved.
  
 This is part of the Gaussian(R) 16 program.  It is based on
 the Gaussian(R) 09 system (copyright 2009, Gaussian, Inc.),
 the Gaussian(R) 03 system (copyright 2003, Gaussian, Inc.),
 the Gaussian(R) 98 system (copyright 1998, Gaussian, Inc.),
 the Gaussian(R) 94 system (copyright 1995, Gaussian, Inc.),
 the Gaussian 92(TM) system (copyright 1992, Gaussian, Inc.),
 the Gaussian 90(TM) system (copyright 1990, Gaussian, Inc.),
 the Gaussian 88(TM) system (copyright 1988, Gaussian, Inc.),
 the Gaussian 86(TM) system (copyright 1986, Carnegie Mellon
 University), and the Gaussian 82(TM) system (copyright 1983,
 Carnegie Mellon University). Gaussian is a federally registered
 trademark of Gaussian, Inc.
  
 This software contains proprietary and confidential information,
 including trade secrets, belonging to Gaussian, Inc.
  
 This software is provided under written license and may be
 used, copied, transmitted, or stored only in accord with that
 written license.
  
 The following legend is applicable only to US Government
 contracts under FAR:
  
                    RESTRICTED RIGHTS LEGEND
  
 Use, reproduction and disclosure by the US Government is
 subject to restrictions as set forth in subparagraphs (a)
 and (c) of the Commercial Computer Software - Restricted
 Rights clause in FAR 52.227-19.
  
 Gaussian, Inc.
 340 Quinnipiac St., Bldg. 40, Wallingford CT 06492
  
  
 ---------------------------------------------------------------
 Warning -- This program may not be used in any manner that
 competes with the business of Gaussian, Inc. or will provide
 assistance to any competitor of Gaussian, Inc.  The licensee
 of this program is prohibited from giving any competitor of
 Gaussian, Inc. access to this program.  By using this program,
 the user acknowledges that Gaussian, Inc. is engaged in the
 business of creating and licensing software in the field of
 computational chemistry and represents and warrants to the
 licensee that it is not a competitor of Gaussian, Inc. and that
 it will not use this program in any manner prohibited above.
 ---------------------------------------------------------------
  

 Cite this work as:
 Gaussian 16, Revision A.03,
 M. J. Frisch, G. W. Trucks, H. B. Schlegel, G. E. Scuseria, 
 M. A. Robb, J. R. Cheeseman, G. Scalmani, V. Barone, 
 G. A. Petersson, H. Nakatsuji, X. Li, M. Caricato, A. V. Marenich, 
 J. Bloino, B. G. Janesko, R. Gomperts, B. Mennucci, H. P. Hratchian, 
 J. V. Ortiz, A. F. Izmaylov, J. L. Sonnenberg, D. Williams-Young, 
 F. Ding, F. Lipparini, F. Egidi, J. Goings, B. Peng, A. Petrone, 
 T. Henderson, D. Ranasinghe, V. G. Zakrzewski, J. Gao, N. Rega, 
 G. Zheng, W. Liang, M. Hada, M. Ehara, K. Toyota, R. Fukuda, 
 J. Hasegawa, M. Ishida, T. Nakajima, Y. Honda, O. Kitao, H. Nakai, 
 T. Vreven, K. Throssell, J. A. Montgomery, Jr., J. E. Peralta, 
 F. Ogliaro, M. J. Bearpark, J. J. Heyd, E. N. Brothers, K. N. Kudin, 
 V. N. Staroverov, T. A. Keith, R. Kobayashi, J. Normand, 
 K. Raghavachari, A. P. Rendell, J. C. Burant, S. S. Iyengar, 
 J. Tomasi, M. Cossi, J. M. Millam, M. Klene, C. Adamo, R. Cammi, 
 J. W. Ochterski, R. L. Martin, K. Morokuma, O. Farkas, 
 J. B. Foresman, and D. J. Fox, Gaussian, Inc., Wallingford CT, 2016.
 
 ******************************************
 Gaussian 16:  ES64L-G16RevA.03 25-Dec-2016
                12-Oct-2023 
 ******************************************
 %nprocshared=2
 Will use up to    2 processors via shared memory.
 %mem=2GB
 ------------------
 # ub3lyp/6-31+g(d)
 ------------------
 1/38=1,172=1/1;
 2/12=2,17=6,18=5,40=1/2;
 3/5=1,6=6,7=11,11=2,25=1,30=1,74=-5,116=2/1,2,3;
 4//1;
 5/5=2,38=5/2;
 6/7=2,8=2,9=2,10=2,28=1/1;
 99/5=1,9=1/99;
 -------------------
 tmpdir/M2_ref_8.gjf
 -------------------
 Symbolic Z-matrix:
 Charge =  0 Multiplicity = 1
 C                     2.76086  -0.64578  -0.05544 
 C                     1.56914  -1.37271  -0.06898 
 C                     0.35803  -0.6951   -0.06228 
 H                     2.7414    0.36093  -0.02977 
 H                     3.71236  -1.16918  -0.07324 
 H                     1.58782  -2.45944  -0.09246 
 O                     0.33367   0.54069  -0.02227 
 H                    -0.64899  -1.14631  -0.03801 
 
                          Input orientation:                          
 ---------------------------------------------------------------------
 Center     Atomic      Atomic             Coordinates (Angstroms)
 Number     Number       Type             X           Y           Z
 ---------------------------------------------------------------------
      1          6           0        2.760863   -0.645777   -0.055435
      2          6           0        1.569139   -1.372715   -0.068976
      3          6           0        0.358030   -0.695095   -0.062281
      4          1           0        2.741398    0.360929   -0.029771
      5          1           0        3.712363   -1.169184   -0.073236
      6          1           0        1.587816   -2.459440   -0.092460
      7          8           0        0.333667    0.540695   -0.022268
      8          1           0       -0.648988   -1.146310   -0.038009
 ---------------------------------------------------------------------
                    Distance matrix (angstroms):
                    1          2          3          4          5
     1  C    0.000000
     2  C    1.396005   0.000000
     3  C    2.403349   1.387803   0.000000
     4  H    1.007222   2.093144   2.607045   0.000000
     5  H    1.086104   2.152871   3.387687   1.812708   0.000000
     6  H    2.160274   1.087139   2.150859   3.047813   2.485725
     7  O    2.701870   2.278093   1.236678   2.414444   3.787066
     8  H    3.446436   2.229866   1.103752   3.710330   4.361552
                    6          7          8
     6  H    0.000000
     7  O    3.252480   0.000000
     8  H    2.594334   1.952393   0.000000
 Stoichiometry    C3H4O
 Framework group  C1[X(C3H4O)]
 Deg. of freedom    18
 Full point group                 C1      NOp   1
 Largest Abelian subgroup         C1      NOp   1
 Largest concise Abelian subgroup C1      NOp   1
                         Standard orientation:                         
 ---------------------------------------------------------------------
 Center     Atomic      Atomic             Coordinates (Angstroms)
 Number     Number       Type             X           Y           Z
 ---------------------------------------------------------------------
      1          6           0       -1.413634   -0.474769    0.000713
      2          6           0       -0.589217    0.651803    0.001768
      3          6           0        0.788750    0.487253   -0.009467
      4          1           0       -1.011612   -1.398278    0.003049
      5          1           0       -2.492941   -0.353513   -0.003205
      6          1           0       -1.020991    1.649521    0.003460
      7          8           0        1.282778   -0.646404    0.001907
      8          1           0        1.547923    1.287783    0.023358
 ---------------------------------------------------------------------
 Rotational constants (GHZ):          21.3306615           6.9545767           5.2448168
 Standard basis: 6-31+G(d) (6D, 7F)
 There are    84 symmetry adapted cartesian basis functions of A   symmetry.
 There are    84 symmetry adapted basis functions of A   symmetry.
    84 basis functions,   144 primitive gaussians,    84 cartesian basis functions
    15 alpha electrons       15 beta electrons
       nuclear repulsion energy       106.1884754629 Hartrees.
 NAtoms=    8 NActive=    8 NUniq=    8 SFac= 1.00D+00 NAtFMM=   60 NAOKFM=F Big=F
 Integral buffers will be    131072 words long.
 Raffenetti 2 integral format.
 Two-electron integral symmetry is turned on.
 One-electron integrals computed using PRISM.
 NBasis=    84 RedAO= T EigKep=  1.28D-04  NBF=    84
 NBsUse=    84 1.00D-06 EigRej= -1.00D+00 NBFU=    84
 ExpMin= 4.38D-02 ExpMax= 5.48D+03 ExpMxC= 8.25D+02 IAcc=3 IRadAn=         5 AccDes= 0.00D+00
 Harris functional with IExCor=  402 and IRadAn=       5 diagonalized for initial guess.
 HarFok:  IExCor=  402 AccDes= 0.00D+00 IRadAn=         5 IDoV= 1 UseB2=F ITyADJ=14
 ICtDFT=  3500011 ScaDFX=  1.000000  1.000000  1.000000  1.000000
 FoFCou: FMM=F IPFlag=           0 FMFlag=      100000 FMFlg1=           0
         NFxFlg=           0 DoJE=T BraDBF=F KetDBF=T FulRan=T
         wScrn=  0.000000 ICntrl=       500 IOpCl=  0 I1Cent=   200000004 NGrid=           0
         NMat0=    1 NMatS0=      1 NMatT0=    0 NMatD0=    1 NMtDS0=    0 NMtDT0=    0
 Petite list used in FoFCou.
 Initial guess <Sx>= 0.0000 <Sy>= 0.0000 <Sz>= 0.0000 <S**2>= 0.0000 S= 0.0000
 Keep R1 and R2 ints in memory in canonical form, NReq=14566444.
 Requested convergence on RMS density matrix=1.00D-08 within 128 cycles.
 Requested convergence on MAX density matrix=1.00D-06.
 Requested convergence on             energy=1.00D-06.
 No special actions if energy rises.
 SCF Done:  E(UB3LYP) =  -191.902859549     A.U. after   12 cycles
            NFock= 12  Conv=0.21D-08     -V/T= 2.0088
 <Sx>= 0.0000 <Sy>= 0.0000 <Sz>= 0.0000 <S**2>= 0.0000 S= 0.0000
 <L.S>= 0.000000000000E+00
 Annihilation of the first spin contaminant:
 S**2 before annihilation     0.0000,   after    -0.0000

 **********************************************************************

            Population analysis using the SCF density.

 **********************************************************************

 Orbital symmetries:
 Alpha Orbitals:
       Occupied  (A) (A) (A) (A) (A) (A) (A) (A) (A) (A) (A) (A)
                 (A) (A) (A)
       Virtual   (A) (A) (A) (A) (A) (A) (A) (A) (A) (A) (A) (A)
                 (A) (A) (A) (A) (A) (A) (A) (A) (A) (A) (A) (A)
                 (A) (A) (A) (A) (A) (A) (A) (A) (A) (A) (A) (A)
                 (A) (A) (A) (A) (A) (A) (A) (A) (A) (A) (A) (A)
                 (A) (A) (A) (A) (A) (A) (A) (A) (A) (A) (A) (A)
                 (A) (A) (A) (A) (A) (A) (A) (A) (A)
 Beta  Orbitals:
       Occupied  (A) (A) (A) (A) (A) (A) (A) (A) (A) (A) (A) (A)
                 (A) (A) (A)
       Virtual   (A) (A) (A) (A) (A) (A) (A) (A) (A) (A) (A) (A)
                 (A) (A) (A) (A) (A) (A) (A) (A) (A) (A) (A) (A)
                 (A) (A) (A) (A) (A) (A) (A) (A) (A) (A) (A) (A)
                 (A) (A) (A) (A) (A) (A) (A) (A) (A) (A) (A) (A)
                 (A) (A) (A) (A) (A) (A) (A) (A) (A) (A) (A) (A)
                 (A) (A) (A) (A) (A) (A) (A) (A) (A)
 The electronic state is 1-A.
 Alpha  occ. eigenvalues --  -19.14950 -10.27766 -10.22935 -10.22076  -1.04191
 Alpha  occ. eigenvalues --   -0.80610  -0.68247  -0.55968  -0.53107  -0.45827
 Alpha  occ. eigenvalues --   -0.43165  -0.40562  -0.40008  -0.28754  -0.26416
 Alpha virt. eigenvalues --   -0.09831   0.00589   0.02261   0.03804   0.04126
 Alpha virt. eigenvalues --    0.06117   0.06219   0.07036   0.09310   0.09497
 Alpha virt. eigenvalues --    0.11618   0.12088   0.14105   0.16198   0.18642
 Alpha virt. eigenvalues --    0.21933   0.24874   0.25409   0.25933   0.27058
 Alpha virt. eigenvalues --    0.29352   0.32525   0.32908   0.41278   0.45779
 Alpha virt. eigenvalues --    0.63050   0.64807   0.67800   0.68149   0.71150
 Alpha virt. eigenvalues --    0.71299   0.76520   0.87616   0.91370   0.92417
 Alpha virt. eigenvalues --    0.95717   1.04729   1.07530   1.09708   1.16316
 Alpha virt. eigenvalues --    1.21884   1.26080   1.27864   1.32300   1.34423
 Alpha virt. eigenvalues --    1.40812   1.54361   1.58438   1.63981   1.78675
 Alpha virt. eigenvalues --    1.82584   1.84402   1.95444   1.96933   2.10415
 Alpha virt. eigenvalues --    2.21932   2.23798   2.30932   2.32501   2.53542
 Alpha virt. eigenvalues --    2.56915   2.61315   2.79297   2.97027   3.11650
 Alpha virt. eigenvalues --    4.11058   4.17836   4.26762   4.42347
  Beta  occ. eigenvalues --  -19.14950 -10.27766 -10.22935 -10.22076  -1.04191
  Beta  occ. eigenvalues --   -0.80610  -0.68247  -0.55968  -0.53107  -0.45827
  Beta  occ. eigenvalues --   -0.43165  -0.40562  -0.40008  -0.28754  -0.26416
  Beta virt. eigenvalues --   -0.09831   0.00589   0.02261   0.03804   0.04126
  Beta virt. eigenvalues --    0.06117   0.06219   0.07036   0.09310   0.09497
  Beta virt. eigenvalues --    0.11618   0.12088   0.14105   0.16198   0.18642
  Beta virt. eigenvalues --    0.21933   0.24874   0.25409   0.25933   0.27058
  Beta virt. eigenvalues --    0.29352   0.32525   0.32908   0.41278   0.45779
  Beta virt. eigenvalues --    0.63050   0.64807   0.67800   0.68149   0.71150
  Beta virt. eigenvalues --    0.71299   0.76520   0.87616   0.91370   0.92417
  Beta virt. eigenvalues --    0.95717   1.04729   1.07530   1.09708   1.16316
  Beta virt. eigenvalues --    1.21884   1.26080   1.27864   1.32300   1.34423
  Beta virt. eigenvalues --    1.40812   1.54361   1.58438   1.63981   1.78675
  Beta virt. eigenvalues --    1.82584   1.84402   1.95444   1.96933   2.10415
  Beta virt. eigenvalues --    2.21932   2.23798   2.30932   2.32501   2.53542
  Beta virt. eigenvalues --    2.56915   2.61315   2.79297   2.97027   3.11650
  Beta virt. eigenvalues --    4.11058   4.17836   4.26762   4.42347
          Condensed to atoms (all electrons):
               1          2          3          4          5          6
     1  C    5.101938   0.456244   0.068905   0.406331   0.355223  -0.001782
     2  C    0.456244   5.811158  -0.094806  -0.059022  -0.037354   0.266709
     3  C    0.068905  -0.094806   5.063173  -0.003054   0.018704   0.017826
     4  H    0.406331  -0.059022  -0.003054   0.443979  -0.032450   0.004109
     5  H    0.355223  -0.037354   0.018704  -0.032450   0.496751  -0.004089
     6  H   -0.001782   0.266709   0.017826   0.004109  -0.004089   0.518494
     7  O    0.025836  -0.227717   0.488604   0.002620   0.002062   0.006069
     8  H    0.023523  -0.196595   0.461374   0.000033  -0.000046   0.001379
               7          8
     1  C    0.025836   0.023523
     2  C   -0.227717  -0.196595
     3  C    0.488604   0.461374
     4  H    0.002620   0.000033
     5  H    0.002062  -0.000046
     6  H    0.006069   0.001379
     7  O    8.199614  -0.076742
     8  H   -0.076742   0.621108
          Atomic-Atomic Spin Densities.
               1          2          3          4          5          6
     1  C    0.000000  -0.000000   0.000000  -0.000000   0.000000  -0.000000
     2  C   -0.000000   0.000000  -0.000000   0.000000  -0.000000   0.000000
     3  C    0.000000  -0.000000   0.000000  -0.000000   0.000000  -0.000000
     4  H   -0.000000   0.000000  -0.000000   0.000000   0.000000   0.000000
     5  H    0.000000  -0.000000   0.000000   0.000000   0.000000  -0.000000
     6  H   -0.000000   0.000000  -0.000000   0.000000  -0.000000  -0.000000
     7  O    0.000000  -0.000000   0.000000   0.000000  -0.000000   0.000000
     8  H    0.000000  -0.000000   0.000000  -0.000000   0.000000   0.000000
               7          8
     1  C    0.000000   0.000000
     2  C   -0.000000  -0.000000
     3  C    0.000000   0.000000
     4  H    0.000000  -0.000000
     5  H   -0.000000   0.000000
     6  H    0.000000   0.000000
     7  O   -0.000000   0.000000
     8  H    0.000000  -0.000000
 Mulliken charges and spin densities:
               1          2
     1  C   -0.436217   0.000000
     2  C    0.081384  -0.000000
     3  C   -0.020726   0.000000
     4  H    0.237454  -0.000000
     5  H    0.201200  -0.000000
     6  H    0.191285  -0.000000
     7  O   -0.420345   0.000000
     8  H    0.165966  -0.000000
 Sum of Mulliken charges =   0.00000  -0.00000
 Mulliken charges and spin densities with hydrogens summed into heavy atoms:
               1          2
     1  C    0.002437   0.000000
     2  C    0.272669  -0.000000
     3  C    0.145240   0.000000
     7  O   -0.420345   0.000000
 Electronic spatial extent (au):  <R**2>=            256.3202
 Charge=              0.0000 electrons
 Dipole moment (field-independent basis, Debye):
    X=             -2.3857    Y=              1.8371    Z=             -0.0025  Tot=              3.0111
 Quadrupole moment (field-independent basis, Debye-Ang):
   XX=            -23.9836   YY=            -22.8204   ZZ=            -25.2483
   XY=              3.4954   XZ=              0.0114   YZ=              0.0083
 Traceless Quadrupole moment (field-independent basis, Debye-Ang):
   XX=              0.0338   YY=              1.1970   ZZ=             -1.2308
   XY=              3.4954   XZ=              0.0114   YZ=              0.0083
 Octapole moment (field-independent basis, Debye-Ang**2):
  XXX=             -6.3949  YYY=             -0.9096  ZZZ=              0.0076  XYY=             -1.2008
  XXY=              2.9549  XXZ=              0.0079  XZZ=              3.2342  YZZ=             -1.1252
  YYZ=              0.0512  XYZ=              0.0182
 Hexadecapole moment (field-independent basis, Debye-Ang**3):
 XXXX=           -210.6506 YYYY=            -90.1989 ZZZZ=            -28.4883 XXXY=              7.0348
 XXXZ=              0.1627 YYYX=             -0.9745 YYYZ=              0.0232 ZZZX=              0.0337
 ZZZY=             -0.0137 XXYY=            -51.5896 XXZZ=            -43.8669 YYZZ=            -21.1783
 XXYZ=              0.0847 YYXZ=              0.0475 ZZXY=             -0.2140
 N-N= 1.061884754629D+02 E-N=-6.596356163162D+02  KE= 1.902331304818D+02
                          Isotropic Fermi Contact Couplings
        Atom                 a.u.       MegaHertz       Gauss      10(-4) cm-1
     1  C(13)              0.00000       0.00000       0.00000       0.00000
     2  C(13)              0.00000       0.00000       0.00000       0.00000
     3  C(13)             -0.00000      -0.00000      -0.00000      -0.00000
     4  H(1)               0.00000       0.00000       0.00000       0.00000
     5  H(1)               0.00000       0.00000       0.00000       0.00000
     6  H(1)              -0.00000      -0.00000      -0.00000      -0.00000
     7  O(17)              0.00000      -0.00000      -0.00000      -0.00000
     8  H(1)               0.00000       0.00000       0.00000       0.00000
 --------------------------------------------------------
       Center         ----  Spin Dipole Couplings  ----
                      3XX-RR        3YY-RR        3ZZ-RR
 --------------------------------------------------------
     1   Atom        0.000000      0.000000     -0.000000
     2   Atom       -0.000000      0.000000     -0.000000
     3   Atom        0.000000     -0.000000     -0.000000
     4   Atom       -0.000000      0.000000     -0.000000
     5   Atom        0.000000     -0.000000     -0.000000
     6   Atom       -0.000000      0.000000     -0.000000
     7   Atom        0.000000     -0.000000     -0.000000
     8   Atom        0.000000      0.000000     -0.000000
 --------------------------------------------------------
                        XY            XZ            YZ
 --------------------------------------------------------
     1   Atom        0.000000      0.000000      0.000000
     2   Atom       -0.000000     -0.000000      0.000000
     3   Atom        0.000000     -0.000000      0.000000
     4   Atom        0.000000      0.000000     -0.000000
     5   Atom        0.000000     -0.000000      0.000000
     6   Atom       -0.000000      0.000000     -0.000000
     7   Atom       -0.000000      0.000000     -0.000000
     8   Atom        0.000000      0.000000      0.000000
 --------------------------------------------------------


 ---------------------------------------------------------------------------------
              Anisotropic Spin Dipole Couplings in Principal Axis System
 ---------------------------------------------------------------------------------

       Atom             a.u.   MegaHertz   Gauss  10(-4) cm-1        Axes

              Baa    -0.0000    -0.000    -0.000    -0.000 -0.0796 -0.0033  0.9968
     1 C(13)  Bbb     0.0000     0.000     0.000     0.000  0.8747 -0.4799  0.0682
              Bcc     0.0000     0.000     0.000     0.000  0.4781  0.8773  0.0411
 
              Baa    -0.0000    -0.000    -0.000    -0.000 -0.2214 -0.1764  0.9591
     2 C(13)  Bbb    -0.0000    -0.000    -0.000    -0.000  0.9190  0.2912  0.2657
              Bcc     0.0000     0.000     0.000     0.000 -0.3261  0.9403  0.0976
 
              Baa    -0.0000    -0.000    -0.000    -0.000  0.1265 -0.1080  0.9861
     3 C(13)  Bbb    -0.0000    -0.000    -0.000    -0.000 -0.1462  0.9812  0.1262
              Bcc     0.0000     0.000     0.000     0.000  0.9811  0.1601 -0.1083
 
              Baa    -0.0000    -0.000    -0.000    -0.000  0.7964 -0.2537 -0.5489
     4 H(1)   Bbb    -0.0000    -0.000    -0.000    -0.000  0.5407 -0.1076  0.8343
              Bcc     0.0000     0.000     0.000     0.000  0.2707  0.9613 -0.0515
 
              Baa    -0.0000    -0.000    -0.000    -0.000 -0.3705  0.9022 -0.2210
     5 H(1)   Bbb    -0.0000    -0.000    -0.000    -0.000 -0.0449  0.2203  0.9744
              Bcc     0.0000     0.000     0.000     0.000  0.9277  0.3709 -0.0411
 
              Baa    -0.0000    -0.000    -0.000    -0.000  0.9319  0.2924 -0.2148
     6 H(1)   Bbb    -0.0000    -0.000    -0.000    -0.000  0.1907  0.1089  0.9756
              Bcc     0.0000     0.000     0.000     0.000 -0.3087  0.9501 -0.0457
 
              Baa    -0.0000     0.000     0.000     0.000  0.2006  0.9693  0.1425
     7 O(17)  Bbb    -0.0000     0.000     0.000     0.000 -0.1771 -0.1071  0.9783
              Bcc     0.0000    -0.000    -0.000    -0.000  0.9635 -0.2215  0.1502
 
              Baa    -0.0000    -0.000    -0.000    -0.000 -0.0064 -0.1459  0.9893
     8 H(1)   Bbb    -0.0000    -0.000    -0.000    -0.000 -0.6803  0.7257  0.1027
              Bcc     0.0000     0.000     0.000     0.000  0.7329  0.6724  0.1039
 

 ---------------------------------------------------------------------------------

 1\1\GINC-NODE32\SP\UB3LYP\6-31+G(d)\C3H4O1\YANZ\12-Oct-2023\0\\# ub3ly
 p/6-31+g(d)\\tmpdir/M2_ref_8.gjf\\0,1\C,0,2.76086323,-0.64577722,-0.05
 543502\C,0,1.5691386,-1.37271489,-0.06897614\C,0,0.35803021,-0.6950954
 8,-0.06228099\H,0,2.74139783,0.36092915,-0.02977126\H,0,3.71236256,-1.
 16918432,-0.07323601\H,0,1.58781592,-2.45944017,-0.09245997\O,0,0.3336
 6656,0.54069463,-0.02226801\H,0,-0.64898759,-1.14630964,-0.03800929\\V
 ersion=ES64L-G16RevA.03\State=1-A\HF=-191.9028595\S2=0.\S2-1=0.\S2A=0.
 \RMSD=2.062e-09\Dipole=0.5920629,-1.0257555,-0.0258204\Quadrupole=1.98
 31183,-1.0676958,-0.9154224,2.1475742,0.0341288,-0.0099955\PG=C01 [X(C
 3H4O1)]\\@


 The juvenile sea squirt wanders through the sea searching
 for a suitable rock or hunk of coral to cling to and make
 its home for life.  For this task it has a rudimentary
 nervous system.  When it finds its spot and takes root, it
 doesn't need its brain any more so it eats it.
 It's rather like getting tenure.

                               -- source unknown
 Job cpu time:       0 days  0 hours  0 minutes 37.6 seconds.
 Elapsed time:       0 days  0 hours  0 minutes 19.1 seconds.
 File lengths (MBytes):  RWF=     10 Int=      0 D2E=      0 Chk=      2 Scr=      1
 Normal termination of Gaussian 16 at Thu Oct 12 15:11:40 2023.
