 Entering Gaussian System, Link 0=g16
 Initial command:
 /share/apps/gaussian/g16/l1.exe "/tmp/58286.mgr/Gau-30459.inp" -scrdir="/tmp/58286.mgr/"
 Entering Link 1 = /share/apps/gaussian/g16/l1.exe PID=     30460.
  
 Copyright (c) 1988,1990,1992,1993,1995,1998,2003,2009,2016,
            Gaussian, Inc.  All Rights Reserved.
  
 This is part of the Gaussian(R) 16 program.  It is based on
 the Gaussian(R) 09 system (copyright 2009, Gaussian, Inc.),
 the Gaussian(R) 03 system (copyright 2003, Gaussian, Inc.),
 the Gaussian(R) 98 system (copyright 1998, Gaussian, Inc.),
 the Gaussian(R) 94 system (copyright 1995, Gaussian, Inc.),
 the Gaussian 92(TM) system (copyright 1992, Gaussian, Inc.),
 the Gaussian 90(TM) system (copyright 1990, Gaussian, Inc.),
 the Gaussian 88(TM) system (copyright 1988, Gaussian, Inc.),
 the Gaussian 86(TM) system (copyright 1986, Carnegie Mellon
 University), and the Gaussian 82(TM) system (copyright 1983,
 Carnegie Mellon University). Gaussian is a federally registered
 trademark of Gaussian, Inc.
  
 This software contains proprietary and confidential information,
 including trade secrets, belonging to Gaussian, Inc.
  
 This software is provided under written license and may be
 used, copied, transmitted, or stored only in accord with that
 written license.
  
 The following legend is applicable only to US Government
 contracts under FAR:
  
                    RESTRICTED RIGHTS LEGEND
  
 Use, reproduction and disclosure by the US Government is
 subject to restrictions as set forth in subparagraphs (a)
 and (c) of the Commercial Computer Software - Restricted
 Rights clause in FAR 52.227-19.
  
 Gaussian, Inc.
 340 Quinnipiac St., Bldg. 40, Wallingford CT 06492
  
  
 ---------------------------------------------------------------
 Warning -- This program may not be used in any manner that
 competes with the business of Gaussian, Inc. or will provide
 assistance to any competitor of Gaussian, Inc.  The licensee
 of this program is prohibited from giving any competitor of
 Gaussian, Inc. access to this program.  By using this program,
 the user acknowledges that Gaussian, Inc. is engaged in the
 business of creating and licensing software in the field of
 computational chemistry and represents and warrants to the
 licensee that it is not a competitor of Gaussian, Inc. and that
 it will not use this program in any manner prohibited above.
 ---------------------------------------------------------------
  

 Cite this work as:
 Gaussian 16, Revision A.03,
 M. J. Frisch, G. W. Trucks, H. B. Schlegel, G. E. Scuseria, 
 M. A. Robb, J. R. Cheeseman, G. Scalmani, V. Barone, 
 G. A. Petersson, H. Nakatsuji, X. Li, M. Caricato, A. V. Marenich, 
 J. Bloino, B. G. Janesko, R. Gomperts, B. Mennucci, H. P. Hratchian, 
 J. V. Ortiz, A. F. Izmaylov, J. L. Sonnenberg, D. Williams-Young, 
 F. Ding, F. Lipparini, F. Egidi, J. Goings, B. Peng, A. Petrone, 
 T. Henderson, D. Ranasinghe, V. G. Zakrzewski, J. Gao, N. Rega, 
 G. Zheng, W. Liang, M. Hada, M. Ehara, K. Toyota, R. Fukuda, 
 J. Hasegawa, M. Ishida, T. Nakajima, Y. Honda, O. Kitao, H. Nakai, 
 T. Vreven, K. Throssell, J. A. Montgomery, Jr., J. E. Peralta, 
 F. Ogliaro, M. J. Bearpark, J. J. Heyd, E. N. Brothers, K. N. Kudin, 
 V. N. Staroverov, T. A. Keith, R. Kobayashi, J. Normand, 
 K. Raghavachari, A. P. Rendell, J. C. Burant, S. S. Iyengar, 
 J. Tomasi, M. Cossi, J. M. Millam, M. Klene, C. Adamo, R. Cammi, 
 J. W. Ochterski, R. L. Martin, K. Morokuma, O. Farkas, 
 J. B. Foresman, and D. J. Fox, Gaussian, Inc., Wallingford CT, 2016.
 
 ******************************************
 Gaussian 16:  ES64L-G16RevA.03 25-Dec-2016
                12-Oct-2023 
 ******************************************
 %nprocshared=2
 Will use up to    2 processors via shared memory.
 %mem=2GB
 ------------------
 # ub3lyp/6-31+g(d)
 ------------------
 1/38=1,172=1/1;
 2/12=2,17=6,18=5,40=1/2;
 3/5=1,6=6,7=11,11=2,25=1,30=1,74=-5,116=2/1,2,3;
 4//1;
 5/5=2,38=5/2;
 6/7=2,8=2,9=2,10=2,28=1/1;
 99/5=1,9=1/99;
 --------------------
 tmpdir/M2_ref_35.gjf
 --------------------
 Symbolic Z-matrix:
 Charge =  0 Multiplicity = 1
 C                     0.35803  -0.6951   -0.06228 
 C                    -1.0331   -1.31842  -0.02875 
 C                    -1.85835  -0.68255  -1.13486 
 H                     1.23473  -1.18561  -0.06713 
 O                     0.33367   0.54069  -0.02227 
 H                    -1.41478  -0.93071   0.93497 
 H                    -0.99836  -2.40914  -0.07674 
 O                    -1.87094   0.49574  -1.12078 
 H                    -2.40083  -1.28897  -1.85186 
 
                          Input orientation:                          
 ---------------------------------------------------------------------
 Center     Atomic      Atomic             Coordinates (Angstroms)
 Number     Number       Type             X           Y           Z
 ---------------------------------------------------------------------
      1          6           0        0.358030   -0.695095   -0.062281
      2          6           0       -1.033097   -1.318418   -0.028751
      3          6           0       -1.858347   -0.682552   -1.134860
      4          1           0        1.234735   -1.185615   -0.067128
      5          8           0        0.333667    0.540695   -0.022268
      6          1           0       -1.414779   -0.930713    0.934974
      7          1           0       -0.998356   -2.409144   -0.076742
      8          8           0       -1.870943    0.495744   -1.120785
      9          1           0       -2.400827   -1.288970   -1.851861
 ---------------------------------------------------------------------
                    Distance matrix (angstroms):
                    1          2          3          4          5
     1  C    0.000000
     2  C    1.524759   0.000000
     3  C    2.462298   1.519486   0.000000
     4  H    1.004611   2.272041   3.310631   0.000000
     5  O    1.236678   2.307463   2.745745   1.947840   0.000000
     6  H    2.047654   1.106690   2.131326   2.844135   2.477582
     7  H    2.185854   1.092334   2.200072   2.546333   3.237098
     8  O    2.739863   2.277214   1.178448   3.685429   2.463546
     9  H    3.341643   2.279316   1.084490   4.051329   3.764643
                    6          7          8          9
     6  H    0.000000
     7  H    1.839222   0.000000
     8  O    2.543424   3.207773   0.000000
     9  H    2.977766   2.524433   2.000114   0.000000
 Stoichiometry    C3H4O2
 Framework group  C1[X(C3H4O2)]
 Deg. of freedom    21
 Full point group                 C1      NOp   1
 Largest Abelian subgroup         C1      NOp   1
 Largest concise Abelian subgroup C1      NOp   1
                         Standard orientation:                         
 ---------------------------------------------------------------------
 Center     Atomic      Atomic             Coordinates (Angstroms)
 Number     Number       Type             X           Y           Z
 ---------------------------------------------------------------------
      1          6           0       -1.225208    0.313922   -0.234113
      2          6           0        0.018491    1.038934    0.268343
      3          6           0        1.236364    0.262478   -0.203611
      4          1           0       -2.000338    0.723109   -0.725013
      5          8           0       -1.243262   -0.883318    0.075181
      6          1           0       -0.072598    0.882182    1.360082
      7          1           0        0.028165    2.092069   -0.021495
      8          8           0        1.220265   -0.884693    0.065608
      9          1           0        2.050867    0.754728   -0.723602
 ---------------------------------------------------------------------
 Rotational constants (GHZ):           9.8923927           5.1422481           3.6314598
 Standard basis: 6-31+G(d) (6D, 7F)
 There are   103 symmetry adapted cartesian basis functions of A   symmetry.
 There are   103 symmetry adapted basis functions of A   symmetry.
   103 basis functions,   176 primitive gaussians,   103 cartesian basis functions
    19 alpha electrons       19 beta electrons
       nuclear repulsion energy       165.5558143280 Hartrees.
 NAtoms=    9 NActive=    9 NUniq=    9 SFac= 1.00D+00 NAtFMM=   60 NAOKFM=F Big=F
 Integral buffers will be    131072 words long.
 Raffenetti 2 integral format.
 Two-electron integral symmetry is turned on.
 One-electron integrals computed using PRISM.
 NBasis=   103 RedAO= T EigKep=  1.88D-04  NBF=   103
 NBsUse=   103 1.00D-06 EigRej= -1.00D+00 NBFU=   103
 ExpMin= 4.38D-02 ExpMax= 5.48D+03 ExpMxC= 8.25D+02 IAcc=3 IRadAn=         5 AccDes= 0.00D+00
 Harris functional with IExCor=  402 and IRadAn=       5 diagonalized for initial guess.
 HarFok:  IExCor=  402 AccDes= 0.00D+00 IRadAn=         5 IDoV= 1 UseB2=F ITyADJ=14
 ICtDFT=  3500011 ScaDFX=  1.000000  1.000000  1.000000  1.000000
 FoFCou: FMM=F IPFlag=           0 FMFlag=      100000 FMFlg1=           0
         NFxFlg=           0 DoJE=T BraDBF=F KetDBF=T FulRan=T
         wScrn=  0.000000 ICntrl=       500 IOpCl=  0 I1Cent=   200000004 NGrid=           0
         NMat0=    1 NMatS0=      1 NMatT0=    0 NMatD0=    1 NMtDS0=    0 NMtDT0=    0
 Petite list used in FoFCou.
 Initial guess <Sx>= 0.0000 <Sy>= 0.0000 <Sz>= 0.0000 <S**2>=-0.0000 S=-0.0000
 Keep R1 and R2 ints in memory in canonical form, NReq=30543755.
 Requested convergence on RMS density matrix=1.00D-08 within 128 cycles.
 Requested convergence on MAX density matrix=1.00D-06.
 Requested convergence on             energy=1.00D-06.
 No special actions if energy rises.
 SCF Done:  E(UB3LYP) =  -267.120619387     A.U. after   13 cycles
            NFock= 13  Conv=0.33D-08     -V/T= 2.0080
 <Sx>= 0.0000 <Sy>= 0.0000 <Sz>= 0.0000 <S**2>=-0.0000 S=-0.0000
 <L.S>= 0.000000000000E+00
 Annihilation of the first spin contaminant:
 S**2 before annihilation    -0.0000,   after     0.0000

 **********************************************************************

            Population analysis using the SCF density.

 **********************************************************************

 Orbital symmetries:
 Alpha Orbitals:
       Occupied  (A) (A) (A) (A) (A) (A) (A) (A) (A) (A) (A) (A)
                 (A) (A) (A) (A) (A) (A) (A)
       Virtual   (A) (A) (A) (A) (A) (A) (A) (A) (A) (A) (A) (A)
                 (A) (A) (A) (A) (A) (A) (A) (A) (A) (A) (A) (A)
                 (A) (A) (A) (A) (A) (A) (A) (A) (A) (A) (A) (A)
                 (A) (A) (A) (A) (A) (A) (A) (A) (A) (A) (A) (A)
                 (A) (A) (A) (A) (A) (A) (A) (A) (A) (A) (A) (A)
                 (A) (A) (A) (A) (A) (A) (A) (A) (A) (A) (A) (A)
                 (A) (A) (A) (A) (A) (A) (A) (A) (A) (A) (A) (A)
 Beta  Orbitals:
       Occupied  (A) (A) (A) (A) (A) (A) (A) (A) (A) (A) (A) (A)
                 (A) (A) (A) (A) (A) (A) (A)
       Virtual   (A) (A) (A) (A) (A) (A) (A) (A) (A) (A) (A) (A)
                 (A) (A) (A) (A) (A) (A) (A) (A) (A) (A) (A) (A)
                 (A) (A) (A) (A) (A) (A) (A) (A) (A) (A) (A) (A)
                 (A) (A) (A) (A) (A) (A) (A) (A) (A) (A) (A) (A)
                 (A) (A) (A) (A) (A) (A) (A) (A) (A) (A) (A) (A)
                 (A) (A) (A) (A) (A) (A) (A) (A) (A) (A) (A) (A)
                 (A) (A) (A) (A) (A) (A) (A) (A) (A) (A) (A) (A)
 The electronic state is 1-A.
 Alpha  occ. eigenvalues --  -19.16751 -19.16333 -10.29432 -10.29097 -10.22179
 Alpha  occ. eigenvalues --   -1.08941  -1.04849  -0.78588  -0.64613  -0.60197
 Alpha  occ. eigenvalues --   -0.51251  -0.48519  -0.48088  -0.44478  -0.42423
 Alpha  occ. eigenvalues --   -0.38863  -0.37171  -0.29163  -0.25034
 Alpha virt. eigenvalues --   -0.06924  -0.03733   0.00397   0.02396   0.02738
 Alpha virt. eigenvalues --    0.04340   0.06554   0.06945   0.07704   0.08146
 Alpha virt. eigenvalues --    0.09190   0.11776   0.13104   0.15350   0.17715
 Alpha virt. eigenvalues --    0.20009   0.22541   0.23657   0.24017   0.24796
 Alpha virt. eigenvalues --    0.26486   0.27791   0.29154   0.29720   0.31533
 Alpha virt. eigenvalues --    0.32773   0.33878   0.35440   0.42604   0.44717
 Alpha virt. eigenvalues --    0.63328   0.64324   0.64508   0.68452   0.70000
 Alpha virt. eigenvalues --    0.73082   0.77309   0.80898   0.84253   0.93596
 Alpha virt. eigenvalues --    0.96346   0.99747   1.02763   1.06332   1.10924
 Alpha virt. eigenvalues --    1.14095   1.18534   1.22831   1.24985   1.25747
 Alpha virt. eigenvalues --    1.35747   1.36540   1.47478   1.50235   1.52963
 Alpha virt. eigenvalues --    1.57593   1.59336   1.63151   1.78131   1.79660
 Alpha virt. eigenvalues --    1.83210   1.83843   1.84736   1.99305   2.05348
 Alpha virt. eigenvalues --    2.09211   2.12460   2.19972   2.23097   2.32967
 Alpha virt. eigenvalues --    2.37553   2.49803   2.55222   2.60682   2.72330
 Alpha virt. eigenvalues --    2.83043   2.89324   3.00707   3.08733   4.09949
 Alpha virt. eigenvalues --    4.16600   4.23624   4.35503   4.48474
  Beta  occ. eigenvalues --  -19.16751 -19.16333 -10.29432 -10.29097 -10.22179
  Beta  occ. eigenvalues --   -1.08941  -1.04849  -0.78588  -0.64613  -0.60197
  Beta  occ. eigenvalues --   -0.51251  -0.48519  -0.48088  -0.44478  -0.42423
  Beta  occ. eigenvalues --   -0.38863  -0.37171  -0.29163  -0.25034
  Beta virt. eigenvalues --   -0.06924  -0.03733   0.00397   0.02396   0.02738
  Beta virt. eigenvalues --    0.04340   0.06554   0.06945   0.07704   0.08146
  Beta virt. eigenvalues --    0.09190   0.11776   0.13104   0.15350   0.17715
  Beta virt. eigenvalues --    0.20009   0.22541   0.23657   0.24017   0.24796
  Beta virt. eigenvalues --    0.26486   0.27791   0.29154   0.29720   0.31533
  Beta virt. eigenvalues --    0.32773   0.33878   0.35440   0.42604   0.44717
  Beta virt. eigenvalues --    0.63328   0.64324   0.64508   0.68452   0.70000
  Beta virt. eigenvalues --    0.73082   0.77309   0.80898   0.84253   0.93596
  Beta virt. eigenvalues --    0.96346   0.99747   1.02763   1.06332   1.10924
  Beta virt. eigenvalues --    1.14095   1.18534   1.22831   1.24985   1.25747
  Beta virt. eigenvalues --    1.35747   1.36540   1.47478   1.50235   1.52963
  Beta virt. eigenvalues --    1.57593   1.59336   1.63151   1.78131   1.79660
  Beta virt. eigenvalues --    1.83210   1.83843   1.84736   1.99305   2.05348
  Beta virt. eigenvalues --    2.09211   2.12460   2.19972   2.23097   2.32967
  Beta virt. eigenvalues --    2.37553   2.49803   2.55222   2.60682   2.72330
  Beta virt. eigenvalues --    2.83043   2.89324   3.00707   3.08733   4.09949
  Beta virt. eigenvalues --    4.16600   4.23624   4.35503   4.48474
          Condensed to atoms (all electrons):
               1          2          3          4          5          6
     1  C    4.952979   0.041642   0.003912   0.437495   0.512829  -0.030381
     2  C    0.041642   6.358420   0.042489  -0.160976  -0.168968   0.390706
     3  C    0.003912   0.042489   4.933231   0.001006  -0.020581  -0.025026
     4  H    0.437495  -0.160976   0.001006   0.595225  -0.061034   0.002267
     5  O    0.512829  -0.168968  -0.020581  -0.061034   8.096224  -0.013566
     6  H   -0.030381   0.390706  -0.025026   0.002267  -0.013566   0.443151
     7  H   -0.017570   0.304651  -0.015229   0.003532   0.008792  -0.024577
     8  O   -0.025668  -0.154537   0.507157  -0.000307  -0.039910  -0.010365
     9  H    0.001801  -0.171748   0.442592  -0.000269  -0.000419   0.001647
               7          8          9
     1  C   -0.017570  -0.025668   0.001801
     2  C    0.304651  -0.154537  -0.171748
     3  C   -0.015229   0.507157   0.442592
     4  H    0.003532  -0.000307  -0.000269
     5  O    0.008792  -0.039910  -0.000419
     6  H   -0.024577  -0.010365   0.001647
     7  H    0.534101   0.008138   0.004319
     8  O    0.008138   8.047601  -0.060472
     9  H    0.004319  -0.060472   0.612326
          Atomic-Atomic Spin Densities.
               1          2          3          4          5          6
     1  C    0.000000   0.000000  -0.000000  -0.000000  -0.000000  -0.000000
     2  C    0.000000  -0.000000   0.000000   0.000000  -0.000000   0.000000
     3  C   -0.000000   0.000000  -0.000000   0.000000   0.000000   0.000000
     4  H   -0.000000   0.000000   0.000000  -0.000000   0.000000   0.000000
     5  O   -0.000000  -0.000000   0.000000   0.000000   0.000000   0.000000
     6  H   -0.000000   0.000000   0.000000   0.000000   0.000000   0.000000
     7  H   -0.000000   0.000000   0.000000  -0.000000  -0.000000   0.000000
     8  O    0.000000  -0.000000   0.000000  -0.000000  -0.000000  -0.000000
     9  H   -0.000000   0.000000  -0.000000  -0.000000  -0.000000  -0.000000
               7          8          9
     1  C   -0.000000   0.000000  -0.000000
     2  C    0.000000  -0.000000   0.000000
     3  C    0.000000   0.000000  -0.000000
     4  H   -0.000000  -0.000000  -0.000000
     5  O   -0.000000  -0.000000  -0.000000
     6  H    0.000000  -0.000000  -0.000000
     7  H   -0.000000  -0.000000  -0.000000
     8  O   -0.000000  -0.000000  -0.000000
     9  H   -0.000000  -0.000000  -0.000000
 Mulliken charges and spin densities:
               1          2
     1  C    0.122960   0.000000
     2  C   -0.481678  -0.000000
     3  C    0.130449   0.000000
     4  H    0.183062  -0.000000
     5  O   -0.313365  -0.000000
     6  H    0.266144   0.000000
     7  H    0.193843   0.000000
     8  O   -0.271637  -0.000000
     9  H    0.170221  -0.000000
 Sum of Mulliken charges =  -0.00000  -0.00000
 Mulliken charges and spin densities with hydrogens summed into heavy atoms:
               1          2
     1  C    0.306022   0.000000
     2  C   -0.021690  -0.000000
     3  C    0.300670   0.000000
     5  O   -0.313365  -0.000000
     8  O   -0.271637  -0.000000
 Electronic spatial extent (au):  <R**2>=            354.1132
 Charge=             -0.0000 electrons
 Dipole moment (field-independent basis, Debye):
    X=              0.0718    Y=              4.6121    Z=             -0.7592  Tot=              4.6747
 Quadrupole moment (field-independent basis, Debye-Ang):
   XX=            -28.6130   YY=            -31.9044   ZZ=            -27.2332
   XY=             -0.4728   XZ=              0.1258   YZ=             -0.0022
 Traceless Quadrupole moment (field-independent basis, Debye-Ang):
   XX=              0.6372   YY=             -2.6542   ZZ=              2.0170
   XY=             -0.4728   XZ=              0.1258   YZ=             -0.0022
 Octapole moment (field-independent basis, Debye-Ang**2):
  XXX=              0.0409  YYY=             -1.0459  ZZZ=              1.3867  XYY=             -0.0383
  XXY=              8.0258  XXZ=             -2.8217  XZZ=             -0.2803  YZZ=             -1.0362
  YYZ=             -0.7785  XYZ=              0.0223
 Hexadecapole moment (field-independent basis, Debye-Ang**3):
 XXXX=           -248.2694 YYYY=           -149.4353 ZZZZ=            -42.3263 XXXY=             -2.3453
 XXXZ=              1.2185 YYYX=             -0.8722 YYYZ=             -2.4518 ZZZX=              0.2364
 ZZZY=              0.0217 XXYY=            -74.3108 XXZZ=            -47.7987 YYZZ=            -32.8675
 XXYZ=             -2.3794 YYXZ=              0.0344 ZZXY=             -0.5753
 N-N= 1.655558143280D+02 E-N=-9.561503380149D+02  KE= 2.649989954096D+02
                          Isotropic Fermi Contact Couplings
        Atom                 a.u.       MegaHertz       Gauss      10(-4) cm-1
     1  C(13)             -0.00000      -0.00000      -0.00000      -0.00000
     2  C(13)             -0.00000      -0.00000      -0.00000      -0.00000
     3  C(13)             -0.00000      -0.00000      -0.00000      -0.00000
     4  H(1)              -0.00000      -0.00000      -0.00000      -0.00000
     5  O(17)             -0.00000       0.00000       0.00000       0.00000
     6  H(1)              -0.00000      -0.00000      -0.00000      -0.00000
     7  H(1)              -0.00000      -0.00000      -0.00000      -0.00000
     8  O(17)             -0.00000       0.00000       0.00000       0.00000
     9  H(1)              -0.00000      -0.00000      -0.00000      -0.00000
 --------------------------------------------------------
       Center         ----  Spin Dipole Couplings  ----
                      3XX-RR        3YY-RR        3ZZ-RR
 --------------------------------------------------------
     1   Atom        0.000000      0.000000      0.000000
     2   Atom        0.000000      0.000000      0.000000
     3   Atom        0.000000      0.000000      0.000000
     4   Atom        0.000000      0.000000      0.000000
     5   Atom        0.000000      0.000000      0.000000
     6   Atom        0.000000      0.000000      0.000000
     7   Atom        0.000000      0.000000      0.000000
     8   Atom        0.000000      0.000000      0.000000
     9   Atom        0.000000      0.000000      0.000000
 --------------------------------------------------------
                        XY            XZ            YZ
 --------------------------------------------------------
     1   Atom        0.000000      0.000000      0.000000
     2   Atom        0.000000      0.000000      0.000000
     3   Atom        0.000000      0.000000      0.000000
     4   Atom        0.000000      0.000000      0.000000
     5   Atom        0.000000      0.000000      0.000000
     6   Atom        0.000000      0.000000      0.000000
     7   Atom        0.000000      0.000000      0.000000
     8   Atom        0.000000      0.000000      0.000000
     9   Atom        0.000000      0.000000      0.000000
 --------------------------------------------------------


 ---------------------------------------------------------------------------------
              Anisotropic Spin Dipole Couplings in Principal Axis System
 ---------------------------------------------------------------------------------

       Atom             a.u.   MegaHertz   Gauss  10(-4) cm-1        Axes

              Baa     0.0000     0.000     0.000     0.000  1.0000  0.0000  0.0000
     1 C(13)  Bbb     0.0000     0.000     0.000     0.000 -0.0000  1.0000  0.0000
              Bcc     0.0000     0.000     0.000     0.000  0.0000  0.0000  1.0000
 
              Baa     0.0000     0.000     0.000     0.000  1.0000  0.0000  0.0000
     2 C(13)  Bbb     0.0000     0.000     0.000     0.000 -0.0000  1.0000  0.0000
              Bcc     0.0000     0.000     0.000     0.000  0.0000  0.0000  1.0000
 
              Baa     0.0000     0.000     0.000     0.000  1.0000  0.0000  0.0000
     3 C(13)  Bbb     0.0000     0.000     0.000     0.000 -0.0000  1.0000  0.0000
              Bcc     0.0000     0.000     0.000     0.000  0.0000  0.0000  1.0000
 
              Baa     0.0000     0.000     0.000     0.000  1.0000  0.0000  0.0000
     4 H(1)   Bbb     0.0000     0.000     0.000     0.000 -0.0000  1.0000  0.0000
              Bcc     0.0000     0.000     0.000     0.000  0.0000  0.0000  1.0000
 
              Baa     0.0000    -0.000    -0.000    -0.000  1.0000  0.0000  0.0000
     5 O(17)  Bbb     0.0000    -0.000    -0.000    -0.000 -0.0000  1.0000  0.0000
              Bcc     0.0000    -0.000    -0.000    -0.000  0.0000  0.0000  1.0000
 
              Baa     0.0000     0.000     0.000     0.000  1.0000  0.0000  0.0000
     6 H(1)   Bbb     0.0000     0.000     0.000     0.000 -0.0000  1.0000  0.0000
              Bcc     0.0000     0.000     0.000     0.000  0.0000  0.0000  1.0000
 
              Baa     0.0000     0.000     0.000     0.000  1.0000  0.0000  0.0000
     7 H(1)   Bbb     0.0000     0.000     0.000     0.000 -0.0000  1.0000  0.0000
              Bcc     0.0000     0.000     0.000     0.000  0.0000  0.0000  1.0000
 
              Baa     0.0000    -0.000    -0.000    -0.000  1.0000  0.0000  0.0000
     8 O(17)  Bbb     0.0000    -0.000    -0.000    -0.000 -0.0000  1.0000  0.0000
              Bcc     0.0000    -0.000    -0.000    -0.000  0.0000  0.0000  1.0000
 
              Baa     0.0000     0.000     0.000     0.000  1.0000  0.0000  0.0000
     9 H(1)   Bbb     0.0000     0.000     0.000     0.000 -0.0000  1.0000  0.0000
              Bcc     0.0000     0.000     0.000     0.000  0.0000  0.0000  1.0000
 

 ---------------------------------------------------------------------------------

 1\1\GINC-NODE32\SP\UB3LYP\6-31+G(d)\C3H4O2\YANZ\12-Oct-2023\0\\# ub3ly
 p/6-31+g(d)\\tmpdir/M2_ref_35.gjf\\0,1\C,0,0.35803021,-0.69509548,-0.0
 6228099\C,0,-1.0330974,-1.3184176,-0.02875126\C,0,-1.85834667,-0.68255
 24,-1.1348603\H,0,1.23473462,-1.18561468,-0.06712752\O,0,0.33366656,0.
 54069463,-0.02226801\H,0,-1.41477893,-0.93071278,0.93497418\H,0,-0.998
 35638,-2.40914399,-0.07674181\O,0,-1.87094255,0.49574382,-1.12078459\H
 ,0,-2.40082691,-1.28897047,-1.85186107\\Version=ES64L-G16RevA.03\State
 =1-A\HF=-267.1206194\S2=0.\S2-1=0.\S2A=0.\RMSD=3.328e-09\Dipole=-0.037
 9729,-1.8366728,0.0876973\Quadrupole=0.6766794,-1.8267966,1.1501171,-0
 .609684,-0.3570273,0.5077793\PG=C01 [X(C3H4O2)]\\@


 I WANT TO KNOW HOW GOD CREATED THE WORLD.  I AM NOT INTERESTED IN
 THIS OR THAT PHENOMENON, IN THE SPECTRUM OF THIS OR THAT ELEMENT.
 I WANT TO KNOW HIS THOUGHTS, THE REST ARE DETAILS.
     -- ALBERT EINSTEIN
 Job cpu time:       0 days  0 hours  1 minutes  1.0 seconds.
 Elapsed time:       0 days  0 hours  0 minutes 31.1 seconds.
 File lengths (MBytes):  RWF=     10 Int=      0 D2E=      0 Chk=      2 Scr=      1
 Normal termination of Gaussian 16 at Thu Oct 12 15:12:51 2023.
