 Entering Gaussian System, Link 0=g16
 Initial command:
 /share/apps/gaussian/g16/l1.exe "/tmp/58286.mgr/Gau-30085.inp" -scrdir="/tmp/58286.mgr/"
 Entering Link 1 = /share/apps/gaussian/g16/l1.exe PID=     30086.
  
 Copyright (c) 1988,1990,1992,1993,1995,1998,2003,2009,2016,
            Gaussian, Inc.  All Rights Reserved.
  
 This is part of the Gaussian(R) 16 program.  It is based on
 the Gaussian(R) 09 system (copyright 2009, Gaussian, Inc.),
 the Gaussian(R) 03 system (copyright 2003, Gaussian, Inc.),
 the Gaussian(R) 98 system (copyright 1998, Gaussian, Inc.),
 the Gaussian(R) 94 system (copyright 1995, Gaussian, Inc.),
 the Gaussian 92(TM) system (copyright 1992, Gaussian, Inc.),
 the Gaussian 90(TM) system (copyright 1990, Gaussian, Inc.),
 the Gaussian 88(TM) system (copyright 1988, Gaussian, Inc.),
 the Gaussian 86(TM) system (copyright 1986, Carnegie Mellon
 University), and the Gaussian 82(TM) system (copyright 1983,
 Carnegie Mellon University). Gaussian is a federally registered
 trademark of Gaussian, Inc.
  
 This software contains proprietary and confidential information,
 including trade secrets, belonging to Gaussian, Inc.
  
 This software is provided under written license and may be
 used, copied, transmitted, or stored only in accord with that
 written license.
  
 The following legend is applicable only to US Government
 contracts under FAR:
  
                    RESTRICTED RIGHTS LEGEND
  
 Use, reproduction and disclosure by the US Government is
 subject to restrictions as set forth in subparagraphs (a)
 and (c) of the Commercial Computer Software - Restricted
 Rights clause in FAR 52.227-19.
  
 Gaussian, Inc.
 340 Quinnipiac St., Bldg. 40, Wallingford CT 06492
  
  
 ---------------------------------------------------------------
 Warning -- This program may not be used in any manner that
 competes with the business of Gaussian, Inc. or will provide
 assistance to any competitor of Gaussian, Inc.  The licensee
 of this program is prohibited from giving any competitor of
 Gaussian, Inc. access to this program.  By using this program,
 the user acknowledges that Gaussian, Inc. is engaged in the
 business of creating and licensing software in the field of
 computational chemistry and represents and warrants to the
 licensee that it is not a competitor of Gaussian, Inc. and that
 it will not use this program in any manner prohibited above.
 ---------------------------------------------------------------
  

 Cite this work as:
 Gaussian 16, Revision A.03,
 M. J. Frisch, G. W. Trucks, H. B. Schlegel, G. E. Scuseria, 
 M. A. Robb, J. R. Cheeseman, G. Scalmani, V. Barone, 
 G. A. Petersson, H. Nakatsuji, X. Li, M. Caricato, A. V. Marenich, 
 J. Bloino, B. G. Janesko, R. Gomperts, B. Mennucci, H. P. Hratchian, 
 J. V. Ortiz, A. F. Izmaylov, J. L. Sonnenberg, D. Williams-Young, 
 F. Ding, F. Lipparini, F. Egidi, J. Goings, B. Peng, A. Petrone, 
 T. Henderson, D. Ranasinghe, V. G. Zakrzewski, J. Gao, N. Rega, 
 G. Zheng, W. Liang, M. Hada, M. Ehara, K. Toyota, R. Fukuda, 
 J. Hasegawa, M. Ishida, T. Nakajima, Y. Honda, O. Kitao, H. Nakai, 
 T. Vreven, K. Throssell, J. A. Montgomery, Jr., J. E. Peralta, 
 F. Ogliaro, M. J. Bearpark, J. J. Heyd, E. N. Brothers, K. N. Kudin, 
 V. N. Staroverov, T. A. Keith, R. Kobayashi, J. Normand, 
 K. Raghavachari, A. P. Rendell, J. C. Burant, S. S. Iyengar, 
 J. Tomasi, M. Cossi, J. M. Millam, M. Klene, C. Adamo, R. Cammi, 
 J. W. Ochterski, R. L. Martin, K. Morokuma, O. Farkas, 
 J. B. Foresman, and D. J. Fox, Gaussian, Inc., Wallingford CT, 2016.
 
 ******************************************
 Gaussian 16:  ES64L-G16RevA.03 25-Dec-2016
                12-Oct-2023 
 ******************************************
 %nprocshared=2
 Will use up to    2 processors via shared memory.
 %mem=2GB
 ------------------
 # ub3lyp/6-31+g(d)
 ------------------
 1/38=1,172=1/1;
 2/12=2,17=6,18=5,40=1/2;
 3/5=1,6=6,7=11,11=2,25=1,30=1,74=-5,116=2/1,2,3;
 4//1;
 5/5=2,38=5/2;
 6/7=2,8=2,9=2,10=2,28=1/1;
 99/5=1,9=1/99;
 --------------------
 tmpdir/M2_ref_20.gjf
 --------------------
 Symbolic Z-matrix:
 Charge =  0 Multiplicity = 1
 C                     1.51457   1.42596   0.00432 
 C                     0.33039   0.70664  -0.0169 
 C                    -1.07241   1.28244   0.02074 
 O                     2.58962   0.82554  -0.01711 
 H                     1.49361   2.51222   0.04105 
 O                     0.35476  -0.52915  -0.05691 
 H                    -1.60206   0.84923   0.89071 
 H                    -1.08735   2.3742    0.0001 
 H                    -1.65168   0.8275   -0.80422 
 
                          Input orientation:                          
 ---------------------------------------------------------------------
 Center     Atomic      Atomic             Coordinates (Angstroms)
 Number     Number       Type             X           Y           Z
 ---------------------------------------------------------------------
      1          6           0        1.514569    1.425958    0.004316
      2          6           0        0.330395    0.706637   -0.016895
      3          6           0       -1.072408    1.282439    0.020744
      4          8           0        2.589615    0.825544   -0.017106
      5          1           0        1.493615    2.512221    0.041045
      6          8           0        0.354759   -0.529153   -0.056908
      7          1           0       -1.602059    0.849227    0.890705
      8          1           0       -1.087345    2.374200    0.000102
      9          1           0       -1.651680    0.827496   -0.804224
 ---------------------------------------------------------------------
                    Distance matrix (angstroms):
                    1          2          3          4          5
     1  C    0.000000
     2  C    1.385691   0.000000
     3  C    2.591007   1.516846   0.000000
     4  O    1.231536   2.262347   3.690610   0.000000
     5  H    1.087087   2.148621   2.845567   2.012332   0.000000
     6  O    2.274063   1.236678   2.307531   2.613689   3.249084
     7  H    3.291151   2.139731   1.106814   4.288918   3.615339
     8  H    2.769321   2.188845   1.092058   3.989821   2.584973
     9  H    3.322202   2.136145   1.105939   4.313716   3.666833
                    6          7          8          9
     6  O    0.000000
     7  H    2.574304   0.000000
     8  H    3.242279   1.839470   0.000000
     9  H    2.534714   1.695795   1.832405   0.000000
 Stoichiometry    C3H4O2
 Framework group  C1[X(C3H4O2)]
 Deg. of freedom    21
 Full point group                 C1      NOp   1
 Largest Abelian subgroup         C1      NOp   1
 Largest concise Abelian subgroup C1      NOp   1
                         Standard orientation:                         
 ---------------------------------------------------------------------
 Center     Atomic      Atomic             Coordinates (Angstroms)
 Number     Number       Type             X           Y           Z
 ---------------------------------------------------------------------
      1          6           0       -0.855157   -0.641924   -0.002340
      2          6           0        0.337254    0.063967   -0.005713
      3          6           0        1.733382   -0.528974    0.002668
      4          8           0       -1.923170   -0.028748    0.004267
      5          1           0       -0.846773   -1.728977   -0.004071
      6          8           0        0.327201    1.300598   -0.001970
      7          1           0        2.273266   -0.132919    0.883975
      8          1           0        1.735344   -1.619424   -0.056552
      9          1           0        2.313046   -0.051890   -0.809416
 ---------------------------------------------------------------------
 Rotational constants (GHZ):          11.9393862           4.1249127           3.1207097
 Standard basis: 6-31+G(d) (6D, 7F)
 There are   103 symmetry adapted cartesian basis functions of A   symmetry.
 There are   103 symmetry adapted basis functions of A   symmetry.
   103 basis functions,   176 primitive gaussians,   103 cartesian basis functions
    19 alpha electrons       19 beta electrons
       nuclear repulsion energy       162.1583746300 Hartrees.
 NAtoms=    9 NActive=    9 NUniq=    9 SFac= 1.00D+00 NAtFMM=   60 NAOKFM=F Big=F
 Integral buffers will be    131072 words long.
 Raffenetti 2 integral format.
 Two-electron integral symmetry is turned on.
 One-electron integrals computed using PRISM.
 NBasis=   103 RedAO= T EigKep=  6.51D-05  NBF=   103
 NBsUse=   103 1.00D-06 EigRej= -1.00D+00 NBFU=   103
 ExpMin= 4.38D-02 ExpMax= 5.48D+03 ExpMxC= 8.25D+02 IAcc=3 IRadAn=         5 AccDes= 0.00D+00
 Harris functional with IExCor=  402 and IRadAn=       5 diagonalized for initial guess.
 HarFok:  IExCor=  402 AccDes= 0.00D+00 IRadAn=         5 IDoV= 1 UseB2=F ITyADJ=14
 ICtDFT=  3500011 ScaDFX=  1.000000  1.000000  1.000000  1.000000
 FoFCou: FMM=F IPFlag=           0 FMFlag=      100000 FMFlg1=           0
         NFxFlg=           0 DoJE=T BraDBF=F KetDBF=T FulRan=T
         wScrn=  0.000000 ICntrl=       500 IOpCl=  0 I1Cent=   200000004 NGrid=           0
         NMat0=    1 NMatS0=      1 NMatT0=    0 NMatD0=    1 NMtDS0=    0 NMtDT0=    0
 Petite list used in FoFCou.
 Initial guess <Sx>= 0.0000 <Sy>= 0.0000 <Sz>= 0.0000 <S**2>= 0.0000 S= 0.0000
 Keep R1 and R2 ints in memory in canonical form, NReq=30543755.
 Requested convergence on RMS density matrix=1.00D-08 within 128 cycles.
 Requested convergence on MAX density matrix=1.00D-06.
 Requested convergence on             energy=1.00D-06.
 No special actions if energy rises.
 SCF Done:  E(UB3LYP) =  -267.131355624     A.U. after   12 cycles
            NFock= 12  Conv=0.21D-08     -V/T= 2.0085
 <Sx>= 0.0000 <Sy>= 0.0000 <Sz>= 0.0000 <S**2>=-0.0000 S=-0.0000
 <L.S>= 0.000000000000E+00
 Annihilation of the first spin contaminant:
 S**2 before annihilation    -0.0000,   after     0.0000

 **********************************************************************

            Population analysis using the SCF density.

 **********************************************************************

 Orbital symmetries:
 Alpha Orbitals:
       Occupied  (A) (A) (A) (A) (A) (A) (A) (A) (A) (A) (A) (A)
                 (A) (A) (A) (A) (A) (A) (A)
       Virtual   (A) (A) (A) (A) (A) (A) (A) (A) (A) (A) (A) (A)
                 (A) (A) (A) (A) (A) (A) (A) (A) (A) (A) (A) (A)
                 (A) (A) (A) (A) (A) (A) (A) (A) (A) (A) (A) (A)
                 (A) (A) (A) (A) (A) (A) (A) (A) (A) (A) (A) (A)
                 (A) (A) (A) (A) (A) (A) (A) (A) (A) (A) (A) (A)
                 (A) (A) (A) (A) (A) (A) (A) (A) (A) (A) (A) (A)
                 (A) (A) (A) (A) (A) (A) (A) (A) (A) (A) (A) (A)
 Beta  Orbitals:
       Occupied  (A) (A) (A) (A) (A) (A) (A) (A) (A) (A) (A) (A)
                 (A) (A) (A) (A) (A) (A) (A)
       Virtual   (A) (A) (A) (A) (A) (A) (A) (A) (A) (A) (A) (A)
                 (A) (A) (A) (A) (A) (A) (A) (A) (A) (A) (A) (A)
                 (A) (A) (A) (A) (A) (A) (A) (A) (A) (A) (A) (A)
                 (A) (A) (A) (A) (A) (A) (A) (A) (A) (A) (A) (A)
                 (A) (A) (A) (A) (A) (A) (A) (A) (A) (A) (A) (A)
                 (A) (A) (A) (A) (A) (A) (A) (A) (A) (A) (A) (A)
                 (A) (A) (A) (A) (A) (A) (A) (A) (A) (A) (A) (A)
 The electronic state is 1-A.
 Alpha  occ. eigenvalues --  -19.19864 -19.17914 -10.30632 -10.30320 -10.21882
 Alpha  occ. eigenvalues --   -1.09483  -1.05353  -0.79115  -0.71802  -0.57313
 Alpha  occ. eigenvalues --   -0.51577  -0.48718  -0.47786  -0.44115  -0.43382
 Alpha  occ. eigenvalues --   -0.41810  -0.36366  -0.30656  -0.28179
 Alpha virt. eigenvalues --   -0.14037  -0.00542   0.01854   0.02015   0.03630
 Alpha virt. eigenvalues --    0.05196   0.05620   0.06222   0.07602   0.08993
 Alpha virt. eigenvalues --    0.10025   0.12098   0.12963   0.14459   0.17137
 Alpha virt. eigenvalues --    0.19408   0.20380   0.23607   0.23913   0.24733
 Alpha virt. eigenvalues --    0.25464   0.26029   0.28551   0.29175   0.30181
 Alpha virt. eigenvalues --    0.34806   0.36360   0.40133   0.41938   0.52785
 Alpha virt. eigenvalues --    0.60029   0.62764   0.64916   0.65811   0.70395
 Alpha virt. eigenvalues --    0.73075   0.78042   0.82927   0.84186   0.88368
 Alpha virt. eigenvalues --    0.98237   1.00369   1.07824   1.09659   1.11031
 Alpha virt. eigenvalues --    1.15461   1.17237   1.23569   1.27081   1.27941
 Alpha virt. eigenvalues --    1.31984   1.36332   1.36745   1.39760   1.52304
 Alpha virt. eigenvalues --    1.55036   1.66717   1.72391   1.73999   1.77839
 Alpha virt. eigenvalues --    1.79522   1.84194   1.93768   1.95524   2.00136
 Alpha virt. eigenvalues --    2.05926   2.07400   2.20893   2.24238   2.32895
 Alpha virt. eigenvalues --    2.35944   2.42026   2.47474   2.58582   2.66903
 Alpha virt. eigenvalues --    2.82151   2.95807   3.09133   3.24416   4.02149
 Alpha virt. eigenvalues --    4.16589   4.28422   4.34351   4.61330
  Beta  occ. eigenvalues --  -19.19864 -19.17914 -10.30632 -10.30320 -10.21882
  Beta  occ. eigenvalues --   -1.09483  -1.05353  -0.79115  -0.71802  -0.57313
  Beta  occ. eigenvalues --   -0.51577  -0.48718  -0.47786  -0.44115  -0.43382
  Beta  occ. eigenvalues --   -0.41810  -0.36366  -0.30656  -0.28179
  Beta virt. eigenvalues --   -0.14037  -0.00542   0.01854   0.02015   0.03630
  Beta virt. eigenvalues --    0.05196   0.05620   0.06222   0.07602   0.08993
  Beta virt. eigenvalues --    0.10025   0.12098   0.12963   0.14459   0.17137
  Beta virt. eigenvalues --    0.19408   0.20380   0.23607   0.23913   0.24733
  Beta virt. eigenvalues --    0.25464   0.26029   0.28551   0.29175   0.30181
  Beta virt. eigenvalues --    0.34806   0.36360   0.40133   0.41938   0.52785
  Beta virt. eigenvalues --    0.60029   0.62764   0.64916   0.65811   0.70395
  Beta virt. eigenvalues --    0.73075   0.78042   0.82927   0.84186   0.88368
  Beta virt. eigenvalues --    0.98237   1.00369   1.07824   1.09659   1.11031
  Beta virt. eigenvalues --    1.15461   1.17237   1.23569   1.27081   1.27941
  Beta virt. eigenvalues --    1.31984   1.36332   1.36745   1.39760   1.52304
  Beta virt. eigenvalues --    1.55036   1.66717   1.72391   1.73999   1.77839
  Beta virt. eigenvalues --    1.79522   1.84194   1.93768   1.95524   2.00136
  Beta virt. eigenvalues --    2.05926   2.07400   2.20893   2.24238   2.32895
  Beta virt. eigenvalues --    2.35944   2.42026   2.47474   2.58582   2.66903
  Beta virt. eigenvalues --    2.82151   2.95807   3.09133   3.24416   4.02149
  Beta virt. eigenvalues --    4.16589   4.28422   4.34351   4.61330
          Condensed to atoms (all electrons):
               1          2          3          4          5          6
     1  C    6.528403  -0.973942  -0.431756   0.554648   0.366193  -0.149821
     2  C   -0.973942   6.474674  -0.084497  -0.246686  -0.149195   0.601484
     3  C   -0.431756  -0.084497   6.291628   0.045300   0.064226  -0.208366
     4  O    0.554648  -0.246686   0.045300   8.009175  -0.054628  -0.007096
     5  H    0.366193  -0.149195   0.064226  -0.054628   0.586763   0.003921
     6  O   -0.149821   0.601484  -0.208366  -0.007096   0.003921   8.132296
     7  H   -0.009893  -0.013797   0.374920  -0.000260  -0.000030  -0.008903
     8  H    0.073934  -0.114405   0.363387   0.000353   0.000121   0.010282
     9  H   -0.006763  -0.020583   0.379058  -0.000305  -0.000038  -0.008689
               7          8          9
     1  C   -0.009893   0.073934  -0.006763
     2  C   -0.013797  -0.114405  -0.020583
     3  C    0.374920   0.363387   0.379058
     4  O   -0.000260   0.000353  -0.000305
     5  H   -0.000030   0.000121  -0.000038
     6  O   -0.008903   0.010282  -0.008689
     7  H    0.455897  -0.020633  -0.027440
     8  H   -0.020633   0.508365  -0.021390
     9  H   -0.027440  -0.021390   0.455378
          Atomic-Atomic Spin Densities.
               1          2          3          4          5          6
     1  C   -0.000000   0.000000  -0.000000   0.000000  -0.000000   0.000000
     2  C    0.000000  -0.000000  -0.000000  -0.000000   0.000000  -0.000000
     3  C   -0.000000  -0.000000   0.000000   0.000000   0.000000  -0.000000
     4  O    0.000000  -0.000000   0.000000  -0.000000   0.000000  -0.000000
     5  H   -0.000000   0.000000   0.000000   0.000000   0.000000  -0.000000
     6  O    0.000000  -0.000000  -0.000000  -0.000000  -0.000000   0.000000
     7  H    0.000000   0.000000  -0.000000   0.000000  -0.000000   0.000000
     8  H   -0.000000   0.000000   0.000000   0.000000   0.000000  -0.000000
     9  H    0.000000  -0.000000  -0.000000  -0.000000  -0.000000   0.000000
               7          8          9
     1  C    0.000000  -0.000000   0.000000
     2  C    0.000000   0.000000  -0.000000
     3  C   -0.000000   0.000000  -0.000000
     4  O    0.000000   0.000000  -0.000000
     5  H   -0.000000   0.000000  -0.000000
     6  O    0.000000  -0.000000   0.000000
     7  H   -0.000000   0.000000  -0.000000
     8  H    0.000000  -0.000000  -0.000000
     9  H   -0.000000  -0.000000  -0.000000
 Mulliken charges and spin densities:
               1          2
     1  C    0.048997  -0.000000
     2  C    0.526948   0.000000
     3  C   -0.793900   0.000000
     4  O   -0.300500  -0.000000
     5  H    0.182667   0.000000
     6  O   -0.365108   0.000000
     7  H    0.250139  -0.000000
     8  H    0.199986   0.000000
     9  H    0.250772  -0.000000
 Sum of Mulliken charges =  -0.00000   0.00000
 Mulliken charges and spin densities with hydrogens summed into heavy atoms:
               1          2
     1  C    0.231663  -0.000000
     2  C    0.526948   0.000000
     3  C   -0.093003   0.000000
     4  O   -0.300500  -0.000000
     6  O   -0.365108   0.000000
 Electronic spatial extent (au):  <R**2>=            398.4107
 Charge=             -0.0000 electrons
 Dipole moment (field-independent basis, Debye):
    X=              2.6303    Y=             -3.4616    Z=             -0.0032  Tot=              4.3475
 Quadrupole moment (field-independent basis, Debye-Ang):
   XX=            -32.2335   YY=            -31.1568   ZZ=            -27.8205
   XY=              0.5802   XZ=              0.0593   YZ=              0.0344
 Traceless Quadrupole moment (field-independent basis, Debye-Ang):
   XX=             -1.8299   YY=             -0.7532   ZZ=              2.5831
   XY=              0.5802   XZ=              0.0593   YZ=              0.0344
 Octapole moment (field-independent basis, Debye-Ang**2):
  XXX=             12.3488  YYY=             -4.6202  ZZZ=              0.1304  XYY=             -3.9272
  XXY=              1.3065  XXZ=              0.0447  XZZ=             -1.2687  YZZ=              1.9051
  YYZ=             -0.1287  XYZ=              0.0029
 Hexadecapole moment (field-independent basis, Debye-Ang**3):
 XXXX=           -356.2119 YYYY=           -133.8358 ZZZZ=            -32.8244 XXXY=              3.8927
 XXXZ=              0.2204 YYYX=              1.7643 YYYZ=              0.2625 ZZZX=              0.2891
 ZZZY=             -0.0112 XXYY=            -80.3925 XXZZ=            -58.3901 YYZZ=            -28.2175
 XXYZ=             -0.0619 YYXZ=             -0.2345 ZZXY=              1.9986
 N-N= 1.621583746300D+02 E-N=-9.488592309564D+02  KE= 2.648670092219D+02
                          Isotropic Fermi Contact Couplings
        Atom                 a.u.       MegaHertz       Gauss      10(-4) cm-1
     1  C(13)              0.00000       0.00000       0.00000       0.00000
     2  C(13)             -0.00000      -0.00000      -0.00000      -0.00000
     3  C(13)              0.00000       0.00000       0.00000       0.00000
     4  O(17)             -0.00000       0.00000       0.00000       0.00000
     5  H(1)               0.00000       0.00000       0.00000       0.00000
     6  O(17)             -0.00000       0.00000       0.00000       0.00000
     7  H(1)              -0.00000      -0.00000      -0.00000      -0.00000
     8  H(1)              -0.00000      -0.00000      -0.00000      -0.00000
     9  H(1)              -0.00000      -0.00000      -0.00000      -0.00000
 --------------------------------------------------------
       Center         ----  Spin Dipole Couplings  ----
                      3XX-RR        3YY-RR        3ZZ-RR
 --------------------------------------------------------
     1   Atom       -0.000000     -0.000000      0.000000
     2   Atom        0.000000     -0.000000      0.000000
     3   Atom       -0.000000      0.000000     -0.000000
     4   Atom        0.000000     -0.000000      0.000000
     5   Atom        0.000000     -0.000000      0.000000
     6   Atom       -0.000000      0.000000      0.000000
     7   Atom       -0.000000     -0.000000      0.000000
     8   Atom       -0.000000     -0.000000      0.000000
     9   Atom       -0.000000      0.000000      0.000000
 --------------------------------------------------------
                        XY            XZ            YZ
 --------------------------------------------------------
     1   Atom       -0.000000      0.000000     -0.000000
     2   Atom        0.000000      0.000000      0.000000
     3   Atom       -0.000000     -0.000000      0.000000
     4   Atom       -0.000000     -0.000000      0.000000
     5   Atom        0.000000      0.000000     -0.000000
     6   Atom       -0.000000      0.000000     -0.000000
     7   Atom       -0.000000     -0.000000      0.000000
     8   Atom        0.000000      0.000000     -0.000000
     9   Atom       -0.000000      0.000000     -0.000000
 --------------------------------------------------------


 ---------------------------------------------------------------------------------
              Anisotropic Spin Dipole Couplings in Principal Axis System
 ---------------------------------------------------------------------------------

       Atom             a.u.   MegaHertz   Gauss  10(-4) cm-1        Axes

              Baa    -0.0000    -0.000    -0.000    -0.000  0.9938  0.1053 -0.0359
     1 C(13)  Bbb    -0.0000    -0.000    -0.000    -0.000 -0.1050  0.9944  0.0095
              Bcc     0.0000     0.000     0.000     0.000  0.0367 -0.0057  0.9993
 
              Baa    -0.0000    -0.000    -0.000    -0.000 -0.0700  0.9974 -0.0187
     2 C(13)  Bbb     0.0000     0.000     0.000     0.000  0.9803  0.0653 -0.1865
              Bcc     0.0000     0.000     0.000     0.000  0.1847  0.0313  0.9823
 
              Baa    -0.0000    -0.000    -0.000    -0.000  0.5104  0.6512 -0.5616
     3 C(13)  Bbb    -0.0000    -0.000    -0.000    -0.000  0.7577 -0.0318  0.6518
              Bcc     0.0000     0.000     0.000     0.000 -0.4066  0.7582  0.5097
 
              Baa    -0.0000     0.000     0.000     0.000  0.0624  0.9966 -0.0540
     4 O(17)  Bbb     0.0000    -0.000    -0.000    -0.000  0.8857 -0.0304  0.4633
              Bcc     0.0000    -0.000    -0.000    -0.000 -0.4601  0.0768  0.8846
 
              Baa    -0.0000    -0.000    -0.000    -0.000 -0.1135  0.9932  0.0260
     5 H(1)   Bbb     0.0000     0.000     0.000     0.000 -0.0558 -0.0325  0.9979
              Bcc     0.0000     0.000     0.000     0.000  0.9920  0.1118  0.0591
 
              Baa    -0.0000     0.000     0.000     0.000  0.9567  0.1599 -0.2432
     6 O(17)  Bbb     0.0000    -0.000    -0.000    -0.000  0.0886  0.6359  0.7667
              Bcc     0.0000    -0.000    -0.000    -0.000 -0.2773  0.7550 -0.5942
 
              Baa    -0.0000    -0.000    -0.000    -0.000  0.7988  0.5979  0.0660
     7 H(1)   Bbb     0.0000     0.000     0.000     0.000 -0.5761  0.7919 -0.2025
              Bcc     0.0000     0.000     0.000     0.000 -0.1733  0.1237  0.9771
 
              Baa    -0.0000    -0.000    -0.000    -0.000 -0.6646  0.7238  0.1857
     8 H(1)   Bbb     0.0000     0.000     0.000     0.000  0.2878  0.0186  0.9575
              Bcc     0.0000     0.000     0.000     0.000  0.6896  0.6898 -0.2207
 
              Baa    -0.0000    -0.000    -0.000    -0.000  0.9997  0.0122 -0.0212
     9 H(1)   Bbb    -0.0000    -0.000    -0.000    -0.000 -0.0040  0.9372  0.3489
              Bcc     0.0000     0.000     0.000     0.000  0.0241 -0.3487  0.9369
 

 ---------------------------------------------------------------------------------

 1\1\GINC-NODE32\SP\UB3LYP\6-31+G(d)\C3H4O2\YANZ\12-Oct-2023\0\\# ub3ly
 p/6-31+g(d)\\tmpdir/M2_ref_20.gjf\\0,1\C,0,1.51456879,1.42595753,0.004
 31597\C,0,0.33039499,0.70663737,-0.01689504\C,0,-1.07240839,1.28243937
 ,0.02074375\O,0,2.58961513,0.8255441,-0.01710574\H,0,1.49361496,2.5122
 2136,0.0410451\O,0,0.35475864,-0.52915274,-0.05690802\H,0,-1.60205949,
 0.84922693,0.89070546\H,0,-1.08734547,2.3742003,0.00010213\H,0,-1.6516
 8046,0.82749647,-0.80422442\\Version=ES64L-G16RevA.03\State=1-A\HF=-26
 7.1313556\S2=0.\S2-1=0.\S2A=0.\RMSD=2.126e-09\Dipole=-1.0504845,1.3488
 027,0.0530175\Quadrupole=-1.3707994,-0.5449972,1.9157966,0.4223513,-0.
 0079129,-0.1158023\PG=C01 [X(C3H4O2)]\\@


 TOM, TOM, THE BURGLAR'S SON
 STOLE A MACHINE AND AWAY HE RUN
 THE JOB WAS NEAT, BUT TOM GOT BEAT
 BY THE TIME HE GOT HOME IT WAS OBSOLETE.
 Job cpu time:       0 days  0 hours  0 minutes 58.4 seconds.
 Elapsed time:       0 days  0 hours  0 minutes 29.8 seconds.
 File lengths (MBytes):  RWF=     10 Int=      0 D2E=      0 Chk=      2 Scr=      1
 Normal termination of Gaussian 16 at Thu Oct 12 15:12:05 2023.
