 Entering Gaussian System, Link 0=g16
 Initial command:
 /share/apps/gaussian/g16/l1.exe "/tmp/58286.mgr/Gau-29892.inp" -scrdir="/tmp/58286.mgr/"
 Entering Link 1 = /share/apps/gaussian/g16/l1.exe PID=     29893.
  
 Copyright (c) 1988,1990,1992,1993,1995,1998,2003,2009,2016,
            Gaussian, Inc.  All Rights Reserved.
  
 This is part of the Gaussian(R) 16 program.  It is based on
 the Gaussian(R) 09 system (copyright 2009, Gaussian, Inc.),
 the Gaussian(R) 03 system (copyright 2003, Gaussian, Inc.),
 the Gaussian(R) 98 system (copyright 1998, Gaussian, Inc.),
 the Gaussian(R) 94 system (copyright 1995, Gaussian, Inc.),
 the Gaussian 92(TM) system (copyright 1992, Gaussian, Inc.),
 the Gaussian 90(TM) system (copyright 1990, Gaussian, Inc.),
 the Gaussian 88(TM) system (copyright 1988, Gaussian, Inc.),
 the Gaussian 86(TM) system (copyright 1986, Carnegie Mellon
 University), and the Gaussian 82(TM) system (copyright 1983,
 Carnegie Mellon University). Gaussian is a federally registered
 trademark of Gaussian, Inc.
  
 This software contains proprietary and confidential information,
 including trade secrets, belonging to Gaussian, Inc.
  
 This software is provided under written license and may be
 used, copied, transmitted, or stored only in accord with that
 written license.
  
 The following legend is applicable only to US Government
 contracts under FAR:
  
                    RESTRICTED RIGHTS LEGEND
  
 Use, reproduction and disclosure by the US Government is
 subject to restrictions as set forth in subparagraphs (a)
 and (c) of the Commercial Computer Software - Restricted
 Rights clause in FAR 52.227-19.
  
 Gaussian, Inc.
 340 Quinnipiac St., Bldg. 40, Wallingford CT 06492
  
  
 ---------------------------------------------------------------
 Warning -- This program may not be used in any manner that
 competes with the business of Gaussian, Inc. or will provide
 assistance to any competitor of Gaussian, Inc.  The licensee
 of this program is prohibited from giving any competitor of
 Gaussian, Inc. access to this program.  By using this program,
 the user acknowledges that Gaussian, Inc. is engaged in the
 business of creating and licensing software in the field of
 computational chemistry and represents and warrants to the
 licensee that it is not a competitor of Gaussian, Inc. and that
 it will not use this program in any manner prohibited above.
 ---------------------------------------------------------------
  

 Cite this work as:
 Gaussian 16, Revision A.03,
 M. J. Frisch, G. W. Trucks, H. B. Schlegel, G. E. Scuseria, 
 M. A. Robb, J. R. Cheeseman, G. Scalmani, V. Barone, 
 G. A. Petersson, H. Nakatsuji, X. Li, M. Caricato, A. V. Marenich, 
 J. Bloino, B. G. Janesko, R. Gomperts, B. Mennucci, H. P. Hratchian, 
 J. V. Ortiz, A. F. Izmaylov, J. L. Sonnenberg, D. Williams-Young, 
 F. Ding, F. Lipparini, F. Egidi, J. Goings, B. Peng, A. Petrone, 
 T. Henderson, D. Ranasinghe, V. G. Zakrzewski, J. Gao, N. Rega, 
 G. Zheng, W. Liang, M. Hada, M. Ehara, K. Toyota, R. Fukuda, 
 J. Hasegawa, M. Ishida, T. Nakajima, Y. Honda, O. Kitao, H. Nakai, 
 T. Vreven, K. Throssell, J. A. Montgomery, Jr., J. E. Peralta, 
 F. Ogliaro, M. J. Bearpark, J. J. Heyd, E. N. Brothers, K. N. Kudin, 
 V. N. Staroverov, T. A. Keith, R. Kobayashi, J. Normand, 
 K. Raghavachari, A. P. Rendell, J. C. Burant, S. S. Iyengar, 
 J. Tomasi, M. Cossi, J. M. Millam, M. Klene, C. Adamo, R. Cammi, 
 J. W. Ochterski, R. L. Martin, K. Morokuma, O. Farkas, 
 J. B. Foresman, and D. J. Fox, Gaussian, Inc., Wallingford CT, 2016.
 
 ******************************************
 Gaussian 16:  ES64L-G16RevA.03 25-Dec-2016
                12-Oct-2023 
 ******************************************
 %nprocshared=2
 Will use up to    2 processors via shared memory.
 %mem=2GB
 ------------------
 # ub3lyp/6-31+g(d)
 ------------------
 1/38=1,172=1/1;
 2/12=2,17=6,18=5,40=1/2;
 3/5=1,6=6,7=11,11=2,25=1,30=1,74=-5,116=2/1,2,3;
 4//1;
 5/5=2,38=5/2;
 6/7=2,8=2,9=2,10=2,28=1/1;
 99/5=1,9=1/99;
 --------------------
 tmpdir/M2_ref_13.gjf
 --------------------
 Symbolic Z-matrix:
 Charge =  0 Multiplicity = 1
 C                     1.56914  -1.37271  -0.06898 
 C                     0.35803  -0.6951   -0.06228 
 C                     0.33039   0.70664  -0.0169 
 O                     2.61978  -0.73184  -0.05704 
 H                     1.58782  -2.45944  -0.09246 
 H                    -0.64899  -1.14631  -0.03801 
 H                     1.1876    1.22734  -0.00154 
 H                    -0.68507   1.12345   0.01035 
 
                          Input orientation:                          
 ---------------------------------------------------------------------
 Center     Atomic      Atomic             Coordinates (Angstroms)
 Number     Number       Type             X           Y           Z
 ---------------------------------------------------------------------
      1          6           0        1.569139   -1.372715   -0.068976
      2          6           0        0.358030   -0.695095   -0.062281
      3          6           0        0.330395    0.706637   -0.016895
      4          8           0        2.619782   -0.731835   -0.057038
      5          1           0        1.587816   -2.459440   -0.092460
      6          1           0       -0.648988   -1.146310   -0.038009
      7          1           0        1.187602    1.227343   -0.001541
      8          1           0       -0.685075    1.123452    0.010351
 ---------------------------------------------------------------------
                    Distance matrix (angstroms):
                    1          2          3          4          5
     1  C    0.000000
     2  C    1.387803   0.000000
     3  C    2.420930   1.402740   0.000000
     4  O    1.230740   2.262056   2.704091   0.000000
     5  H    1.087139   2.150859   3.407472   2.012667   0.000000
     6  H    2.229866   1.103752   2.095960   3.294997   2.594334
     7  H    2.628768   2.094672   1.003082   2.427468   3.709556
     8  H    3.364316   2.097727   1.098024   3.790608   4.244257
                    6          7          8
     6  H    0.000000
     7  H    3.001436   0.000000
     8  H    2.270564   1.875594   0.000000
 Stoichiometry    C3H4O
 Framework group  C1[X(C3H4O)]
 Deg. of freedom    18
 Full point group                 C1      NOp   1
 Largest Abelian subgroup         C1      NOp   1
 Largest concise Abelian subgroup C1      NOp   1
                         Standard orientation:                         
 ---------------------------------------------------------------------
 Center     Atomic      Atomic             Coordinates (Angstroms)
 Number     Number       Type             X           Y           Z
 ---------------------------------------------------------------------
      1          6           0       -0.800313    0.493089    0.002339
      2          6           0        0.580097    0.635557   -0.010580
      3          6           0        1.409496   -0.495669   -0.000327
      4          8           0       -1.290971   -0.635616    0.000555
      5          1           0       -1.440887    1.371453    0.006083
      6          1           0        1.144723    1.583372    0.022755
      7          1           0        1.008012   -1.414889    0.003884
      8          1           0        2.480240   -0.252870    0.014252
 ---------------------------------------------------------------------
 Rotational constants (GHZ):          21.4500133           6.9445029           5.2462962
 Standard basis: 6-31+G(d) (6D, 7F)
 There are    84 symmetry adapted cartesian basis functions of A   symmetry.
 There are    84 symmetry adapted basis functions of A   symmetry.
    84 basis functions,   144 primitive gaussians,    84 cartesian basis functions
    15 alpha electrons       15 beta electrons
       nuclear repulsion energy       106.2310924687 Hartrees.
 NAtoms=    8 NActive=    8 NUniq=    8 SFac= 1.00D+00 NAtFMM=   60 NAOKFM=F Big=F
 Integral buffers will be    131072 words long.
 Raffenetti 2 integral format.
 Two-electron integral symmetry is turned on.
 One-electron integrals computed using PRISM.
 NBasis=    84 RedAO= T EigKep=  1.27D-04  NBF=    84
 NBsUse=    84 1.00D-06 EigRej= -1.00D+00 NBFU=    84
 ExpMin= 4.38D-02 ExpMax= 5.48D+03 ExpMxC= 8.25D+02 IAcc=3 IRadAn=         5 AccDes= 0.00D+00
 Harris functional with IExCor=  402 and IRadAn=       5 diagonalized for initial guess.
 HarFok:  IExCor=  402 AccDes= 0.00D+00 IRadAn=         5 IDoV= 1 UseB2=F ITyADJ=14
 ICtDFT=  3500011 ScaDFX=  1.000000  1.000000  1.000000  1.000000
 FoFCou: FMM=F IPFlag=           0 FMFlag=      100000 FMFlg1=           0
         NFxFlg=           0 DoJE=T BraDBF=F KetDBF=T FulRan=T
         wScrn=  0.000000 ICntrl=       500 IOpCl=  0 I1Cent=   200000004 NGrid=           0
         NMat0=    1 NMatS0=      1 NMatT0=    0 NMatD0=    1 NMtDS0=    0 NMtDT0=    0
 Petite list used in FoFCou.
 Initial guess <Sx>= 0.0000 <Sy>= 0.0000 <Sz>= 0.0000 <S**2>= 0.0000 S= 0.0000
 Keep R1 and R2 ints in memory in canonical form, NReq=14566444.
 Requested convergence on RMS density matrix=1.00D-08 within 128 cycles.
 Requested convergence on MAX density matrix=1.00D-06.
 Requested convergence on             energy=1.00D-06.
 No special actions if energy rises.
 SCF Done:  E(UB3LYP) =  -191.900092337     A.U. after   12 cycles
            NFock= 12  Conv=0.23D-08     -V/T= 2.0088
 <Sx>= 0.0000 <Sy>= 0.0000 <Sz>= 0.0000 <S**2>= 0.0000 S= 0.0000
 <L.S>= 0.000000000000E+00
 Annihilation of the first spin contaminant:
 S**2 before annihilation     0.0000,   after     0.0000

 **********************************************************************

            Population analysis using the SCF density.

 **********************************************************************

 Orbital symmetries:
 Alpha Orbitals:
       Occupied  (A) (A) (A) (A) (A) (A) (A) (A) (A) (A) (A) (A)
                 (A) (A) (A)
       Virtual   (A) (A) (A) (A) (A) (A) (A) (A) (A) (A) (A) (A)
                 (A) (A) (A) (A) (A) (A) (A) (A) (A) (A) (A) (A)
                 (A) (A) (A) (A) (A) (A) (A) (A) (A) (A) (A) (A)
                 (A) (A) (A) (A) (A) (A) (A) (A) (A) (A) (A) (A)
                 (A) (A) (A) (A) (A) (A) (A) (A) (A) (A) (A) (A)
                 (A) (A) (A) (A) (A) (A) (A) (A) (A)
 Beta  Orbitals:
       Occupied  (A) (A) (A) (A) (A) (A) (A) (A) (A) (A) (A) (A)
                 (A) (A) (A)
       Virtual   (A) (A) (A) (A) (A) (A) (A) (A) (A) (A) (A) (A)
                 (A) (A) (A) (A) (A) (A) (A) (A) (A) (A) (A) (A)
                 (A) (A) (A) (A) (A) (A) (A) (A) (A) (A) (A) (A)
                 (A) (A) (A) (A) (A) (A) (A) (A) (A) (A) (A) (A)
                 (A) (A) (A) (A) (A) (A) (A) (A) (A) (A) (A) (A)
                 (A) (A) (A) (A) (A) (A) (A) (A) (A)
 The electronic state is 1-A.
 Alpha  occ. eigenvalues --  -19.15358 -10.27879 -10.22819 -10.21801  -1.04705
 Alpha  occ. eigenvalues --   -0.80404  -0.68291  -0.55974  -0.53402  -0.45686
 Alpha  occ. eigenvalues --   -0.42529  -0.40827  -0.39982  -0.28625  -0.26905
 Alpha virt. eigenvalues --   -0.09822   0.00437   0.02412   0.03733   0.04178
 Alpha virt. eigenvalues --    0.06161   0.06213   0.06967   0.09200   0.09521
 Alpha virt. eigenvalues --    0.11794   0.12112   0.13827   0.16139   0.19126
 Alpha virt. eigenvalues --    0.21394   0.24492   0.25628   0.25823   0.26992
 Alpha virt. eigenvalues --    0.29571   0.32390   0.32500   0.41471   0.46579
 Alpha virt. eigenvalues --    0.63246   0.64826   0.67911   0.68140   0.71404
 Alpha virt. eigenvalues --    0.71484   0.76791   0.87071   0.90591   0.91808
 Alpha virt. eigenvalues --    0.95519   1.04474   1.06871   1.09734   1.18043
 Alpha virt. eigenvalues --    1.21705   1.26734   1.28897   1.32218   1.34764
 Alpha virt. eigenvalues --    1.41812   1.54360   1.58995   1.63824   1.78722
 Alpha virt. eigenvalues --    1.82472   1.85399   1.94684   1.98163   2.08459
 Alpha virt. eigenvalues --    2.21417   2.26579   2.31614   2.32412   2.48830
 Alpha virt. eigenvalues --    2.56703   2.61271   2.78661   2.99246   3.11975
 Alpha virt. eigenvalues --    4.11005   4.17505   4.27403   4.42583
  Beta  occ. eigenvalues --  -19.15358 -10.27879 -10.22819 -10.21801  -1.04705
  Beta  occ. eigenvalues --   -0.80404  -0.68291  -0.55974  -0.53402  -0.45686
  Beta  occ. eigenvalues --   -0.42529  -0.40827  -0.39982  -0.28625  -0.26905
  Beta virt. eigenvalues --   -0.09822   0.00437   0.02412   0.03733   0.04178
  Beta virt. eigenvalues --    0.06161   0.06213   0.06967   0.09200   0.09521
  Beta virt. eigenvalues --    0.11794   0.12112   0.13827   0.16139   0.19126
  Beta virt. eigenvalues --    0.21394   0.24492   0.25628   0.25823   0.26992
  Beta virt. eigenvalues --    0.29571   0.32390   0.32500   0.41471   0.46579
  Beta virt. eigenvalues --    0.63246   0.64826   0.67911   0.68140   0.71404
  Beta virt. eigenvalues --    0.71484   0.76791   0.87071   0.90591   0.91808
  Beta virt. eigenvalues --    0.95519   1.04474   1.06871   1.09734   1.18043
  Beta virt. eigenvalues --    1.21705   1.26734   1.28897   1.32218   1.34764
  Beta virt. eigenvalues --    1.41812   1.54360   1.58995   1.63824   1.78722
  Beta virt. eigenvalues --    1.82472   1.85399   1.94684   1.98163   2.08459
  Beta virt. eigenvalues --    2.21417   2.26579   2.31614   2.32412   2.48830
  Beta virt. eigenvalues --    2.56703   2.61271   2.78661   2.99246   3.11975
  Beta virt. eigenvalues --    4.11005   4.17505   4.27403   4.42583
          Condensed to atoms (all electrons):
               1          2          3          4          5          6
     1  C    4.989836  -0.017907   0.076279   0.473809   0.455210   0.019759
     2  C   -0.017907   5.793781   0.423063  -0.223172  -0.204269   0.263724
     3  C    0.076279   0.423063   5.094612   0.032273   0.024556  -0.001909
     4  O    0.473809  -0.223172   0.032273   8.198309  -0.065796   0.005360
     5  H    0.455210  -0.204269   0.024556  -0.065796   0.624406   0.001798
     6  H    0.019759   0.263724  -0.001909   0.005360   0.001798   0.522380
     7  H   -0.004256  -0.064193   0.412797   0.002185   0.000038   0.004641
     8  H    0.018188  -0.047283   0.362454   0.002000  -0.000073  -0.006179
               7          8
     1  C   -0.004256   0.018188
     2  C   -0.064193  -0.047283
     3  C    0.412797   0.362454
     4  O    0.002185   0.002000
     5  H    0.000038  -0.000073
     6  H    0.004641  -0.006179
     7  H    0.443746  -0.027966
     8  H   -0.027966   0.502667
          Atomic-Atomic Spin Densities.
               1          2          3          4          5          6
     1  C    0.000000  -0.000000   0.000000   0.000000   0.000000  -0.000000
     2  C   -0.000000   0.000000  -0.000000  -0.000000  -0.000000   0.000000
     3  C    0.000000  -0.000000   0.000000  -0.000000   0.000000  -0.000000
     4  O    0.000000  -0.000000  -0.000000  -0.000000  -0.000000  -0.000000
     5  H    0.000000  -0.000000   0.000000  -0.000000   0.000000   0.000000
     6  H   -0.000000   0.000000  -0.000000  -0.000000   0.000000  -0.000000
     7  H   -0.000000  -0.000000   0.000000   0.000000   0.000000   0.000000
     8  H   -0.000000  -0.000000   0.000000   0.000000   0.000000   0.000000
               7          8
     1  C   -0.000000  -0.000000
     2  C   -0.000000  -0.000000
     3  C    0.000000   0.000000
     4  O    0.000000   0.000000
     5  H    0.000000   0.000000
     6  H    0.000000   0.000000
     7  H    0.000000  -0.000000
     8  H   -0.000000  -0.000000
 Mulliken charges and spin densities:
               1          2
     1  C   -0.010918   0.000000
     2  C    0.076256  -0.000000
     3  C   -0.424125   0.000000
     4  O   -0.424969  -0.000000
     5  H    0.164128   0.000000
     6  H    0.190426   0.000000
     7  H    0.233009   0.000000
     8  H    0.196192  -0.000000
 Sum of Mulliken charges =  -0.00000  -0.00000
 Mulliken charges and spin densities with hydrogens summed into heavy atoms:
               1          2
     1  C    0.153211   0.000000
     2  C    0.266682  -0.000000
     3  C    0.005076   0.000000
     4  O   -0.424969  -0.000000
 Electronic spatial extent (au):  <R**2>=            256.2431
 Charge=              0.0000 electrons
 Dipole moment (field-independent basis, Debye):
    X=              2.3594    Y=              1.8478    Z=              0.0437  Tot=              2.9972
 Quadrupole moment (field-independent basis, Debye-Ang):
   XX=            -24.1918   YY=            -22.7881   ZZ=            -25.2712
   XY=             -3.1212   XZ=              0.0757   YZ=              0.0381
 Traceless Quadrupole moment (field-independent basis, Debye-Ang):
   XX=             -0.1081   YY=              1.2956   ZZ=             -1.1875
   XY=             -3.1212   XZ=              0.0757   YZ=              0.0381
 Octapole moment (field-independent basis, Debye-Ang**2):
  XXX=              6.5538  YYY=             -1.2261  ZZZ=              0.0855  XYY=              0.6511
  XXY=              3.9185  XXZ=              0.1362  XZZ=             -3.4514  YZZ=             -1.0886
  YYZ=              0.1115  XYZ=              0.0403
 Hexadecapole moment (field-independent basis, Debye-Ang**3):
 XXXX=           -213.8145 YYYY=            -90.2357 ZZZZ=            -28.6332 XXXY=             -3.4926
 XXXZ=              0.3744 YYYX=              0.5324 YYYZ=              0.1295 ZZZX=              0.1184
 ZZZY=              0.0420 XXYY=            -51.5767 XXZZ=            -43.9816 YYZZ=            -21.1401
 XXYZ=              0.0785 YYXZ=              0.1332 ZZXY=              0.2280
 N-N= 1.062310924687D+02 E-N=-6.597056895121D+02  KE= 1.902348154870D+02
                          Isotropic Fermi Contact Couplings
        Atom                 a.u.       MegaHertz       Gauss      10(-4) cm-1
     1  C(13)             -0.00000      -0.00000      -0.00000      -0.00000
     2  C(13)              0.00000       0.00000       0.00000       0.00000
     3  C(13)             -0.00000      -0.00000      -0.00000      -0.00000
     4  O(17)              0.00000      -0.00000      -0.00000      -0.00000
     5  H(1)               0.00000       0.00000       0.00000       0.00000
     6  H(1)               0.00000       0.00000       0.00000       0.00000
     7  H(1)              -0.00000      -0.00000      -0.00000      -0.00000
     8  H(1)               0.00000       0.00000       0.00000       0.00000
 --------------------------------------------------------
       Center         ----  Spin Dipole Couplings  ----
                      3XX-RR        3YY-RR        3ZZ-RR
 --------------------------------------------------------
     1   Atom        0.000000      0.000000      0.000000
     2   Atom        0.000000      0.000000      0.000000
     3   Atom        0.000000      0.000000      0.000000
     4   Atom        0.000000      0.000000      0.000000
     5   Atom        0.000000      0.000000      0.000000
     6   Atom        0.000000      0.000000      0.000000
     7   Atom        0.000000      0.000000      0.000000
     8   Atom        0.000000      0.000000      0.000000
 --------------------------------------------------------
                        XY            XZ            YZ
 --------------------------------------------------------
     1   Atom        0.000000      0.000000      0.000000
     2   Atom        0.000000      0.000000      0.000000
     3   Atom        0.000000      0.000000      0.000000
     4   Atom        0.000000      0.000000      0.000000
     5   Atom        0.000000      0.000000      0.000000
     6   Atom        0.000000      0.000000      0.000000
     7   Atom        0.000000      0.000000      0.000000
     8   Atom        0.000000      0.000000      0.000000
 --------------------------------------------------------


 ---------------------------------------------------------------------------------
              Anisotropic Spin Dipole Couplings in Principal Axis System
 ---------------------------------------------------------------------------------

       Atom             a.u.   MegaHertz   Gauss  10(-4) cm-1        Axes

              Baa     0.0000     0.000     0.000     0.000  1.0000  0.0000  0.0000
     1 C(13)  Bbb     0.0000     0.000     0.000     0.000 -0.0000  1.0000  0.0000
              Bcc     0.0000     0.000     0.000     0.000  0.0000  0.0000  1.0000
 
              Baa     0.0000     0.000     0.000     0.000  1.0000  0.0000  0.0000
     2 C(13)  Bbb     0.0000     0.000     0.000     0.000 -0.0000  1.0000  0.0000
              Bcc     0.0000     0.000     0.000     0.000  0.0000  0.0000  1.0000
 
              Baa     0.0000     0.000     0.000     0.000  1.0000  0.0000  0.0000
     3 C(13)  Bbb     0.0000     0.000     0.000     0.000 -0.0000  1.0000  0.0000
              Bcc     0.0000     0.000     0.000     0.000  0.0000  0.0000  1.0000
 
              Baa     0.0000    -0.000    -0.000    -0.000  1.0000  0.0000  0.0000
     4 O(17)  Bbb     0.0000    -0.000    -0.000    -0.000 -0.0000  1.0000  0.0000
              Bcc     0.0000    -0.000    -0.000    -0.000  0.0000  0.0000  1.0000
 
              Baa     0.0000     0.000     0.000     0.000  1.0000  0.0000  0.0000
     5 H(1)   Bbb     0.0000     0.000     0.000     0.000 -0.0000  1.0000  0.0000
              Bcc     0.0000     0.000     0.000     0.000  0.0000  0.0000  1.0000
 
              Baa     0.0000     0.000     0.000     0.000  1.0000  0.0000  0.0000
     6 H(1)   Bbb     0.0000     0.000     0.000     0.000 -0.0000  1.0000  0.0000
              Bcc     0.0000     0.000     0.000     0.000  0.0000  0.0000  1.0000
 
              Baa     0.0000     0.000     0.000     0.000  1.0000  0.0000  0.0000
     7 H(1)   Bbb     0.0000     0.000     0.000     0.000 -0.0000  1.0000  0.0000
              Bcc     0.0000     0.000     0.000     0.000  0.0000  0.0000  1.0000
 
              Baa     0.0000     0.000     0.000     0.000  1.0000  0.0000  0.0000
     8 H(1)   Bbb     0.0000     0.000     0.000     0.000 -0.0000  1.0000  0.0000
              Bcc     0.0000     0.000     0.000     0.000  0.0000  0.0000  1.0000
 

 ---------------------------------------------------------------------------------

 1\1\GINC-NODE32\SP\UB3LYP\6-31+G(d)\C3H4O1\YANZ\12-Oct-2023\0\\# ub3ly
 p/6-31+g(d)\\tmpdir/M2_ref_13.gjf\\0,1\C,0,1.5691386,-1.37271489,-0.06
 897614\C,0,0.35803021,-0.69509548,-0.06228099\C,0,0.33039499,0.7066373
 7,-0.01689504\O,0,2.6197821,-0.73183501,-0.05703807\H,0,1.58781592,-2.
 45944017,-0.09245997\H,0,-0.64898759,-1.14630964,-0.03800929\H,0,1.187
 60183,1.22734316,-0.00154069\H,0,-0.68507474,1.12345238,0.01035115\\Ve
 rsion=ES64L-G16RevA.03\State=1-A\HF=-191.9000923\S2=0.\S2-1=0.\S2A=0.\
 RMSD=2.306e-09\Dipole=-1.1774728,-0.061129,0.0182691\Quadrupole=-1.919
 1678,2.7989719,-0.8798041,-0.2919461,-0.0673757,0.1019657\PG=C01 [X(C3
 H4O1)]\\@


 HAPPINESS IS NOT HAVING WHAT YOU WANT --
 HAPPINESS IS WANTING WHAT YOU HAVE!

              -- FROM MRS. SEVERN'S DESK
 Job cpu time:       0 days  0 hours  0 minutes 37.5 seconds.
 Elapsed time:       0 days  0 hours  0 minutes 19.0 seconds.
 File lengths (MBytes):  RWF=     10 Int=      0 D2E=      0 Chk=      2 Scr=      1
 Normal termination of Gaussian 16 at Thu Oct 12 15:11:31 2023.
