 Entering Gaussian System, Link 0=g16
 Initial command:
 /share/apps/gaussian/g16/l1.exe "/tmp/58286.mgr/Gau-30326.inp" -scrdir="/tmp/58286.mgr/"
 Entering Link 1 = /share/apps/gaussian/g16/l1.exe PID=     30327.
  
 Copyright (c) 1988,1990,1992,1993,1995,1998,2003,2009,2016,
            Gaussian, Inc.  All Rights Reserved.
  
 This is part of the Gaussian(R) 16 program.  It is based on
 the Gaussian(R) 09 system (copyright 2009, Gaussian, Inc.),
 the Gaussian(R) 03 system (copyright 2003, Gaussian, Inc.),
 the Gaussian(R) 98 system (copyright 1998, Gaussian, Inc.),
 the Gaussian(R) 94 system (copyright 1995, Gaussian, Inc.),
 the Gaussian 92(TM) system (copyright 1992, Gaussian, Inc.),
 the Gaussian 90(TM) system (copyright 1990, Gaussian, Inc.),
 the Gaussian 88(TM) system (copyright 1988, Gaussian, Inc.),
 the Gaussian 86(TM) system (copyright 1986, Carnegie Mellon
 University), and the Gaussian 82(TM) system (copyright 1983,
 Carnegie Mellon University). Gaussian is a federally registered
 trademark of Gaussian, Inc.
  
 This software contains proprietary and confidential information,
 including trade secrets, belonging to Gaussian, Inc.
  
 This software is provided under written license and may be
 used, copied, transmitted, or stored only in accord with that
 written license.
  
 The following legend is applicable only to US Government
 contracts under FAR:
  
                    RESTRICTED RIGHTS LEGEND
  
 Use, reproduction and disclosure by the US Government is
 subject to restrictions as set forth in subparagraphs (a)
 and (c) of the Commercial Computer Software - Restricted
 Rights clause in FAR 52.227-19.
  
 Gaussian, Inc.
 340 Quinnipiac St., Bldg. 40, Wallingford CT 06492
  
  
 ---------------------------------------------------------------
 Warning -- This program may not be used in any manner that
 competes with the business of Gaussian, Inc. or will provide
 assistance to any competitor of Gaussian, Inc.  The licensee
 of this program is prohibited from giving any competitor of
 Gaussian, Inc. access to this program.  By using this program,
 the user acknowledges that Gaussian, Inc. is engaged in the
 business of creating and licensing software in the field of
 computational chemistry and represents and warrants to the
 licensee that it is not a competitor of Gaussian, Inc. and that
 it will not use this program in any manner prohibited above.
 ---------------------------------------------------------------
  

 Cite this work as:
 Gaussian 16, Revision A.03,
 M. J. Frisch, G. W. Trucks, H. B. Schlegel, G. E. Scuseria, 
 M. A. Robb, J. R. Cheeseman, G. Scalmani, V. Barone, 
 G. A. Petersson, H. Nakatsuji, X. Li, M. Caricato, A. V. Marenich, 
 J. Bloino, B. G. Janesko, R. Gomperts, B. Mennucci, H. P. Hratchian, 
 J. V. Ortiz, A. F. Izmaylov, J. L. Sonnenberg, D. Williams-Young, 
 F. Ding, F. Lipparini, F. Egidi, J. Goings, B. Peng, A. Petrone, 
 T. Henderson, D. Ranasinghe, V. G. Zakrzewski, J. Gao, N. Rega, 
 G. Zheng, W. Liang, M. Hada, M. Ehara, K. Toyota, R. Fukuda, 
 J. Hasegawa, M. Ishida, T. Nakajima, Y. Honda, O. Kitao, H. Nakai, 
 T. Vreven, K. Throssell, J. A. Montgomery, Jr., J. E. Peralta, 
 F. Ogliaro, M. J. Bearpark, J. J. Heyd, E. N. Brothers, K. N. Kudin, 
 V. N. Staroverov, T. A. Keith, R. Kobayashi, J. Normand, 
 K. Raghavachari, A. P. Rendell, J. C. Burant, S. S. Iyengar, 
 J. Tomasi, M. Cossi, J. M. Millam, M. Klene, C. Adamo, R. Cammi, 
 J. W. Ochterski, R. L. Martin, K. Morokuma, O. Farkas, 
 J. B. Foresman, and D. J. Fox, Gaussian, Inc., Wallingford CT, 2016.
 
 ******************************************
 Gaussian 16:  ES64L-G16RevA.03 25-Dec-2016
                12-Oct-2023 
 ******************************************
 %nprocshared=2
 Will use up to    2 processors via shared memory.
 %mem=2GB
 ------------------
 # ub3lyp/6-31+g(d)
 ------------------
 1/38=1,172=1/1;
 2/12=2,17=6,18=5,40=1/2;
 3/5=1,6=6,7=11,11=2,25=1,30=1,74=-5,116=2/1,2,3;
 4//1;
 5/5=2,38=5/2;
 6/7=2,8=2,9=2,10=2,28=1/1;
 99/5=1,9=1/99;
 --------------------
 tmpdir/M2_ref_54.gjf
 --------------------
 Symbolic Z-matrix:
 Charge =  0 Multiplicity = 3
 C                    -1.0331   -1.31842  -0.02875 
 C                    -1.56036  -0.78283   1.30257 
 C                    -1.80409   0.68399   1.22254 
 H                    -0.02608  -0.8672   -0.05302 
 H                    -0.99836  -2.40914  -0.07674 
 H                    -1.63048  -0.85812  -0.82945 
 H                    -1.10669  -1.20451   2.20001 
 H                    -1.27443   1.1172    0.35258 
 H                    -2.80968   1.06898   1.39914 
 
                          Input orientation:                          
 ---------------------------------------------------------------------
 Center     Atomic      Atomic             Coordinates (Angstroms)
 Number     Number       Type             X           Y           Z
 ---------------------------------------------------------------------
      1          6           0       -1.033097   -1.318418   -0.028751
      2          6           0       -1.560365   -0.782829    1.302571
      3          6           0       -1.804086    0.683985    1.222538
      4          1           0       -0.026080   -0.867203   -0.053023
      5          1           0       -0.998356   -2.409144   -0.076742
      6          1           0       -1.630484   -0.858124   -0.829448
      7          1           0       -1.106686   -1.204513    2.200013
      8          1           0       -1.274435    1.117198    0.352576
      9          1           0       -2.809675    1.068982    1.399139
 ---------------------------------------------------------------------
                    Distance matrix (angstroms):
                    1          2          3          4          5
     1  C    0.000000
     2  C    1.528818   0.000000
     3  C    2.483901   1.489077   0.000000
     4  H    1.103752   2.049094   2.682265   0.000000
     5  H    1.092334   2.205279   3.450330   1.823037   0.000000
     6  H    1.099935   2.134500   2.572719   1.782423   1.836250
     7  H    2.232886   1.090433   2.237912   2.521440   2.578078
     8  H    2.477070   2.143443   1.106814   2.379233   3.563091
     9  H    3.300724   2.235913   1.091156   3.688630   4.190043
                    6          7          8          9
     6  H    0.000000
     7  H    3.093862   0.000000
     8  H    2.329345   2.971785   0.000000
     9  H    3.173457   2.951330   1.858650   0.000000
 Stoichiometry    C3H6(3)
 Framework group  C1[X(C3H6)]
 Deg. of freedom    21
 Full point group                 C1      NOp   1
 Largest Abelian subgroup         C1      NOp   1
 Largest concise Abelian subgroup C1      NOp   1
                         Standard orientation:                         
 ---------------------------------------------------------------------
 Center     Atomic      Atomic             Coordinates (Angstroms)
 Number     Number       Type             X           Y           Z
 ---------------------------------------------------------------------
      1          6           0       -1.179980   -0.242139   -0.040206
      2          6           0        0.072574    0.633570   -0.079253
      3          6           0        1.300680   -0.193872    0.077101
      4          1           0       -1.184944   -0.555108    1.018234
      5          1           0       -2.092642    0.289913   -0.317988
      6          1           0       -0.980224   -1.131389   -0.655989
      7          1           0        0.000889    1.592340    0.435203
      8          1           0        1.046752   -1.188782    0.490274
      9          1           0        2.050524   -0.192325   -0.715586
 ---------------------------------------------------------------------
 Rotational constants (GHZ):          35.3052726           9.7437509           8.3055199
 Standard basis: 6-31+G(d) (6D, 7F)
 There are    69 symmetry adapted cartesian basis functions of A   symmetry.
 There are    69 symmetry adapted basis functions of A   symmetry.
    69 basis functions,   120 primitive gaussians,    69 cartesian basis functions
    13 alpha electrons       11 beta electrons
       nuclear repulsion energy        69.2226832578 Hartrees.
 NAtoms=    9 NActive=    9 NUniq=    9 SFac= 1.00D+00 NAtFMM=   60 NAOKFM=F Big=F
 Integral buffers will be    131072 words long.
 Raffenetti 2 integral format.
 Two-electron integral symmetry is turned on.
 One-electron integrals computed using PRISM.
 NBasis=    69 RedAO= T EigKep=  2.82D-04  NBF=    69
 NBsUse=    69 1.00D-06 EigRej= -1.00D+00 NBFU=    69
 ExpMin= 4.38D-02 ExpMax= 3.05D+03 ExpMxC= 4.57D+02 IAcc=3 IRadAn=         5 AccDes= 0.00D+00
 Harris functional with IExCor=  402 and IRadAn=       5 diagonalized for initial guess.
 HarFok:  IExCor=  402 AccDes= 0.00D+00 IRadAn=         5 IDoV= 1 UseB2=F ITyADJ=14
 ICtDFT=  3500011 ScaDFX=  1.000000  1.000000  1.000000  1.000000
 FoFCou: FMM=F IPFlag=           0 FMFlag=      100000 FMFlg1=           0
         NFxFlg=           0 DoJE=T BraDBF=F KetDBF=T FulRan=T
         wScrn=  0.000000 ICntrl=       500 IOpCl=  0 I1Cent=   200000004 NGrid=           0
         NMat0=    1 NMatS0=      1 NMatT0=    0 NMatD0=    1 NMtDS0=    0 NMtDT0=    0
 Petite list used in FoFCou.
 Initial guess <Sx>= 0.0000 <Sy>= 0.0000 <Sz>= 1.0000 <S**2>= 2.0000 S= 1.0000
 Keep R1 and R2 ints in memory in canonical form, NReq=7619695.
 Requested convergence on RMS density matrix=1.00D-08 within 128 cycles.
 Requested convergence on MAX density matrix=1.00D-06.
 Requested convergence on             energy=1.00D-06.
 No special actions if energy rises.
 SCF Done:  E(UB3LYP) =  -117.791266678     A.U. after   13 cycles
            NFock= 13  Conv=0.58D-08     -V/T= 2.0105
 <Sx>= 0.0000 <Sy>= 0.0000 <Sz>= 1.0000 <S**2>= 2.0041 S= 1.0014
 <L.S>= 0.000000000000E+00
 Annihilation of the first spin contaminant:
 S**2 before annihilation     2.0041,   after     2.0000

 **********************************************************************

            Population analysis using the SCF density.

 **********************************************************************

 Orbital symmetries:
 Alpha Orbitals:
       Occupied  (A) (A) (A) (A) (A) (A) (A) (A) (A) (A) (A) (A)
                 (A)
       Virtual   (A) (A) (A) (A) (A) (A) (A) (A) (A) (A) (A) (A)
                 (A) (A) (A) (A) (A) (A) (A) (A) (A) (A) (A) (A)
                 (A) (A) (A) (A) (A) (A) (A) (A) (A) (A) (A) (A)
                 (A) (A) (A) (A) (A) (A) (A) (A) (A) (A) (A) (A)
                 (A) (A) (A) (A) (A) (A) (A) (A)
 Beta  Orbitals:
       Occupied  (A) (A) (A) (A) (A) (A) (A) (A) (A) (A) (A)
       Virtual   (A) (A) (A) (A) (A) (A) (A) (A) (A) (A) (A) (A)
                 (A) (A) (A) (A) (A) (A) (A) (A) (A) (A) (A) (A)
                 (A) (A) (A) (A) (A) (A) (A) (A) (A) (A) (A) (A)
                 (A) (A) (A) (A) (A) (A) (A) (A) (A) (A) (A) (A)
                 (A) (A) (A) (A) (A) (A) (A) (A) (A) (A)
 The electronic state is 3-A.
 Alpha  occ. eigenvalues --  -10.20816 -10.20686 -10.19520  -0.79618  -0.68387
 Alpha  occ. eigenvalues --   -0.57683  -0.46308  -0.44007  -0.40808  -0.38184
 Alpha  occ. eigenvalues --   -0.37226  -0.25921  -0.17844
 Alpha virt. eigenvalues --    0.01610   0.03159   0.03588   0.05043   0.06623
 Alpha virt. eigenvalues --    0.07906   0.08499   0.09280   0.09636   0.11860
 Alpha virt. eigenvalues --    0.13340   0.15661   0.17991   0.21251   0.22683
 Alpha virt. eigenvalues --    0.23374   0.27227   0.27815   0.29730   0.32491
 Alpha virt. eigenvalues --    0.61922   0.63197   0.64695   0.67038   0.68144
 Alpha virt. eigenvalues --    0.68675   0.71974   0.74882   0.78382   0.91268
 Alpha virt. eigenvalues --    0.92680   0.97106   0.97698   0.99530   1.03349
 Alpha virt. eigenvalues --    1.08851   1.15146   1.28567   1.41077   1.49848
 Alpha virt. eigenvalues --    1.78498   1.79471   1.87234   1.90757   1.96461
 Alpha virt. eigenvalues --    2.07614   2.17804   2.23379   2.26476   2.37452
 Alpha virt. eigenvalues --    2.41883   2.58494   2.70481   4.10772   4.21871
 Alpha virt. eigenvalues --    4.39066
  Beta  occ. eigenvalues --  -10.19481 -10.19468 -10.19336  -0.76931  -0.65966
  Beta  occ. eigenvalues --   -0.54877  -0.45042  -0.42115  -0.39598  -0.36659
  Beta  occ. eigenvalues --   -0.35986
  Beta virt. eigenvalues --   -0.10402  -0.02777   0.01871   0.03403   0.03915
  Beta virt. eigenvalues --    0.05354   0.06926   0.07921   0.08902   0.09835
  Beta virt. eigenvalues --    0.11091   0.12274   0.14103   0.16079   0.18649
  Beta virt. eigenvalues --    0.22372   0.23855   0.24765   0.28185   0.29411
  Beta virt. eigenvalues --    0.31750   0.33713   0.62856   0.64182   0.66204
  Beta virt. eigenvalues --    0.69535   0.71531   0.72232   0.74212   0.77528
  Beta virt. eigenvalues --    0.80288   0.92562   0.93726   0.97786   0.99108
  Beta virt. eigenvalues --    1.01465   1.04467   1.09445   1.17982   1.30070
  Beta virt. eigenvalues --    1.44435   1.53786   1.80331   1.83030   1.93454
  Beta virt. eigenvalues --    1.94795   1.99470   2.11954   2.20903   2.25656
  Beta virt. eigenvalues --    2.27541   2.41587   2.44504   2.60900   2.72507
  Beta virt. eigenvalues --    4.13755   4.23673   4.41536
          Condensed to atoms (all electrons):
               1          2          3          4          5          6
     1  C    5.498205   0.164367  -0.021524   0.403454   0.391821   0.402268
     2  C    0.164367   5.660086   0.127347  -0.049388  -0.061351  -0.095406
     3  C   -0.021524   0.127347   5.576319  -0.037274   0.014595   0.024710
     4  H    0.403454  -0.049388  -0.037274   0.530874  -0.026749  -0.035279
     5  H    0.391821  -0.061351   0.014595  -0.026749   0.493913  -0.019693
     6  H    0.402268  -0.095406   0.024710  -0.035279  -0.019693   0.509622
     7  H   -0.043522   0.348787  -0.026185  -0.003764  -0.001295   0.004306
     8  H    0.020919  -0.082050   0.379217   0.002582   0.000243  -0.001335
     9  H   -0.004690  -0.055810   0.391705  -0.000087  -0.000122   0.000688
               7          8          9
     1  C   -0.043522   0.020919  -0.004690
     2  C    0.348787  -0.082050  -0.055810
     3  C   -0.026185   0.379217   0.391705
     4  H   -0.003764   0.002582  -0.000087
     5  H   -0.001295   0.000243  -0.000122
     6  H    0.004306  -0.001335   0.000688
     7  H    0.532531   0.002455   0.001809
     8  H    0.002455   0.530857  -0.034454
     9  H    0.001809  -0.034454   0.504998
          Atomic-Atomic Spin Densities.
               1          2          3          4          5          6
     1  C    0.027247  -0.070919  -0.018051   0.041951  -0.001454  -0.001872
     2  C   -0.070919   1.420033  -0.236238  -0.063608  -0.013172  -0.005465
     3  C   -0.018051  -0.236238   1.262425   0.003886   0.008071   0.007093
     4  H    0.041951  -0.063608   0.003886   0.086279  -0.007238  -0.009623
     5  H   -0.001454  -0.013172   0.008071  -0.007238   0.018414   0.003504
     6  H   -0.001872  -0.005465   0.007093  -0.009623   0.003504   0.016399
     7  H   -0.011328  -0.005913  -0.012088  -0.002894   0.002813   0.000418
     8  H    0.008119  -0.027516   0.005292   0.005531  -0.000180  -0.002734
     9  H   -0.002964  -0.033226   0.014751  -0.000491   0.000071   0.000622
               7          8          9
     1  C   -0.011328   0.008119  -0.002964
     2  C   -0.005913  -0.027516  -0.033226
     3  C   -0.012088   0.005292   0.014751
     4  H   -0.002894   0.005531  -0.000491
     5  H    0.002813  -0.000180   0.000071
     6  H    0.000418  -0.002734   0.000622
     7  H    0.012947  -0.000440   0.001403
     8  H   -0.000440   0.009523  -0.007345
     9  H    0.001403  -0.007345   0.009199
 Mulliken charges and spin densities:
               1          2
     1  C   -0.811299  -0.029270
     2  C    0.043417   0.963978
     3  C   -0.428911   1.035141
     4  H    0.215631   0.053793
     5  H    0.208636   0.010829
     6  H    0.210118   0.008341
     7  H    0.184878  -0.015082
     8  H    0.181565  -0.009750
     9  H    0.195965  -0.017980
 Sum of Mulliken charges =  -0.00000   2.00000
 Mulliken charges and spin densities with hydrogens summed into heavy atoms:
               1          2
     1  C   -0.176914   0.043693
     2  C    0.228295   0.948896
     3  C   -0.051381   1.007411
 Electronic spatial extent (au):  <R**2>=            196.7155
 Charge=              0.0000 electrons
 Dipole moment (field-independent basis, Debye):
    X=             -0.5811    Y=             -0.4322    Z=              0.0969  Tot=              0.7306
 Quadrupole moment (field-independent basis, Debye-Ang):
   XX=            -21.4459   YY=            -20.6136   ZZ=            -21.6711
   XY=             -0.6125   XZ=             -1.1490   YZ=              0.5813
 Traceless Quadrupole moment (field-independent basis, Debye-Ang):
   XX=             -0.2024   YY=              0.6299   ZZ=             -0.4275
   XY=             -0.6125   XZ=             -1.1490   YZ=              0.5813
 Octapole moment (field-independent basis, Debye-Ang**2):
  XXX=             -3.8352  YYY=             -0.4441  ZZZ=              0.3695  XYY=             -0.6874
  XXY=              0.7235  XXZ=             -3.5876  XZZ=             -1.2642  YZZ=             -1.0607
  YYZ=              1.2336  XYZ=             -0.0802
 Hexadecapole moment (field-independent basis, Debye-Ang**3):
 XXXX=           -186.4424 YYYY=            -67.0529 ZZZZ=            -40.0594 XXXY=             -3.7140
 XXXZ=             -6.6443 YYYX=             -0.9697 YYYZ=              2.7226 ZZZX=             -3.1815
 ZZZY=              1.2986 XXYY=            -43.4764 XXZZ=            -38.3955 YYZZ=            -18.7160
 XXYZ=             -0.2014 YYXZ=              0.4607 ZZXY=              0.3248
 N-N= 6.922268325775D+01 E-N=-4.101538539711D+02  KE= 1.165699834499D+02
                          Isotropic Fermi Contact Couplings
        Atom                 a.u.       MegaHertz       Gauss      10(-4) cm-1
     1  C(13)              0.01477       8.30352       2.96290       2.76976
     2  C(13)              0.16652      93.60023      33.39889      31.22168
     3  C(13)              0.17448      98.07503      34.99561      32.71431
     4  H(1)               0.02577      57.59641      20.55183      19.21209
     5  H(1)               0.00514      11.49417       4.10140       3.83404
     6  H(1)               0.00586      13.08657       4.66962       4.36521
     7  H(1)               0.00514      11.48726       4.09894       3.83174
     8  H(1)               0.00493      11.01224       3.92944       3.67329
     9  H(1)               0.00450      10.05107       3.58647       3.35268
 --------------------------------------------------------
       Center         ----  Spin Dipole Couplings  ----
                      3XX-RR        3YY-RR        3ZZ-RR
 --------------------------------------------------------
     1   Atom        0.041575     -0.029908     -0.011667
     2   Atom       -0.482136     -0.376253      0.858389
     3   Atom       -0.107406     -0.208034      0.315440
     4   Atom        0.010078     -0.008710     -0.001367
     5   Atom        0.024713     -0.012633     -0.012081
     6   Atom        0.002996      0.013030     -0.016026
     7   Atom       -0.061337      0.057503      0.003835
     8   Atom       -0.046864      0.057001     -0.010138
     9   Atom        0.031130     -0.057438      0.026308
 --------------------------------------------------------
                        XY            XZ            YZ
 --------------------------------------------------------
     1   Atom        0.036516     -0.039676     -0.020036
     2   Atom        0.027274     -0.102856     -0.448117
     3   Atom        0.329878      0.578876      0.496042
     4   Atom        0.014002     -0.010455     -0.010206
     5   Atom        0.002010      0.002233     -0.001892
     6   Atom        0.019129      0.007759      0.009730
     7   Atom       -0.020758     -0.009636      0.038663
     8   Atom        0.024856      0.010673     -0.041183
     9   Atom        0.005450     -0.051187      0.019235
 --------------------------------------------------------


 ---------------------------------------------------------------------------------
              Anisotropic Spin Dipole Couplings in Principal Axis System
 ---------------------------------------------------------------------------------

       Atom             a.u.   MegaHertz   Gauss  10(-4) cm-1        Axes

              Baa    -0.0459    -6.159    -2.198    -2.054 -0.2990  0.9331  0.1997
     1 C(13)  Bbb    -0.0328    -4.403    -1.571    -1.469  0.4828 -0.0326  0.8751
              Bcc     0.0787    10.561     3.769     3.523  0.8231  0.3580 -0.4408
 
              Baa    -0.5228   -70.151   -25.032   -23.400  0.1725  0.9331  0.3156
     2 C(13)  Bbb    -0.4887   -65.575   -23.399   -21.874  0.9824 -0.1861  0.0131
              Bcc     1.0114   135.726    48.431    45.273 -0.0710 -0.3078  0.9488
 
              Baa    -0.5198   -69.755   -24.890   -23.268 -0.5746 -0.4643  0.6740
     3 C(13)  Bbb    -0.4914   -65.941   -23.529   -21.996 -0.6388  0.7693 -0.0147
              Bcc     1.0112   135.697    48.420    45.264  0.5117  0.4389  0.7386
 
              Baa    -0.0177    -9.458    -3.375    -3.155 -0.3125  0.8827  0.3510
     4 H(1)   Bbb    -0.0074    -3.932    -1.403    -1.312  0.5777 -0.1167  0.8079
              Bcc     0.0251    13.390     4.778     4.466  0.7540  0.4552 -0.4735
 
              Baa    -0.0145    -7.734    -2.760    -2.580 -0.0759  0.7496  0.6575
     5 H(1)   Bbb    -0.0104    -5.575    -1.989    -1.860 -0.0100 -0.6599  0.7513
              Bcc     0.0249    13.309     4.749     4.439  0.9971  0.0504  0.0576
 
              Baa    -0.0193   -10.307    -3.678    -3.438 -0.1761 -0.1866  0.9665
     6 H(1)   Bbb    -0.0118    -6.273    -2.238    -2.093  0.7868 -0.6167  0.0243
              Bcc     0.0311    16.581     5.916     5.531  0.5915  0.7648  0.2554
 
              Baa    -0.0650   -34.693   -12.379   -11.572  0.9872  0.1503  0.0538
     7 H(1)   Bbb    -0.0164    -8.734    -3.117    -2.913  0.0215 -0.4588  0.8883
              Bcc     0.0814    43.427    15.496    14.486 -0.1582  0.8757  0.4562
 
              Baa    -0.0620   -33.055   -11.795   -11.026  0.8413 -0.3253 -0.4318
     8 H(1)   Bbb    -0.0172    -9.189    -3.279    -3.065  0.5209  0.2741  0.8084
              Bcc     0.0792    42.245    15.074    14.091  0.1446  0.9050 -0.4000
 
              Baa    -0.0653   -34.861   -12.439   -11.628 -0.2201  0.9227 -0.3166
     9 H(1)   Bbb    -0.0153    -8.147    -2.907    -2.718  0.6651  0.3794  0.6433
              Bcc     0.0806    43.009    15.347    14.346  0.7136 -0.0690 -0.6971
 

 ---------------------------------------------------------------------------------

 1\1\GINC-NODE32\SP\UB3LYP\6-31+G(d)\C3H6(3)\YANZ\12-Oct-2023\0\\# ub3l
 yp/6-31+g(d)\\tmpdir/M2_ref_54.gjf\\0,3\C,0,-1.0330974,-1.3184176,-0.0
 2875126\C,0,-1.56036485,-0.78282937,1.30257086\C,0,-1.80408589,0.68398
 541,1.22253756\H,0,-0.0260796,-0.86720344,-0.05302296\H,0,-0.99835638,
 -2.40914399,-0.07674181\H,0,-1.63048379,-0.85812368,-0.82944811\H,0,-1
 .10668637,-1.20451272,2.20001314\H,0,-1.27443479,1.11719785,0.35257585
 \H,0,-2.80967507,1.06898249,1.39913883\\Version=ES64L-G16RevA.03\State
 =3-A\HF=-117.7912667\S2=2.004136\S2-1=0.\S2A=2.000009\RMSD=5.770e-09\D
 ipole=0.1257202,-0.0838673,-0.2445162\Quadrupole=0.2086665,-0.1072029,
 -0.1014636,-0.8679863,0.1099991,-0.7051313\PG=C01 [X(C3H6)]\\@


 THE SOLUTION TO A PROBLEM CHANGES THE PROBLEM.

                                 -- JOHN PEERS
           PAUL DICKSON'S "THE OFFICIAL RULES"
 Job cpu time:       0 days  0 hours  0 minutes 35.3 seconds.
 Elapsed time:       0 days  0 hours  0 minutes 17.9 seconds.
 File lengths (MBytes):  RWF=      6 Int=      0 D2E=      0 Chk=      1 Scr=      1
 Normal termination of Gaussian 16 at Thu Oct 12 15:12:24 2023.
