 Entering Gaussian System, Link 0=g16
 Initial command:
 /share/apps/gaussian/g16/l1.exe "/tmp/58286.mgr/Gau-30520.inp" -scrdir="/tmp/58286.mgr/"
 Entering Link 1 = /share/apps/gaussian/g16/l1.exe PID=     30521.
  
 Copyright (c) 1988,1990,1992,1993,1995,1998,2003,2009,2016,
            Gaussian, Inc.  All Rights Reserved.
  
 This is part of the Gaussian(R) 16 program.  It is based on
 the Gaussian(R) 09 system (copyright 2009, Gaussian, Inc.),
 the Gaussian(R) 03 system (copyright 2003, Gaussian, Inc.),
 the Gaussian(R) 98 system (copyright 1998, Gaussian, Inc.),
 the Gaussian(R) 94 system (copyright 1995, Gaussian, Inc.),
 the Gaussian 92(TM) system (copyright 1992, Gaussian, Inc.),
 the Gaussian 90(TM) system (copyright 1990, Gaussian, Inc.),
 the Gaussian 88(TM) system (copyright 1988, Gaussian, Inc.),
 the Gaussian 86(TM) system (copyright 1986, Carnegie Mellon
 University), and the Gaussian 82(TM) system (copyright 1983,
 Carnegie Mellon University). Gaussian is a federally registered
 trademark of Gaussian, Inc.
  
 This software contains proprietary and confidential information,
 including trade secrets, belonging to Gaussian, Inc.
  
 This software is provided under written license and may be
 used, copied, transmitted, or stored only in accord with that
 written license.
  
 The following legend is applicable only to US Government
 contracts under FAR:
  
                    RESTRICTED RIGHTS LEGEND
  
 Use, reproduction and disclosure by the US Government is
 subject to restrictions as set forth in subparagraphs (a)
 and (c) of the Commercial Computer Software - Restricted
 Rights clause in FAR 52.227-19.
  
 Gaussian, Inc.
 340 Quinnipiac St., Bldg. 40, Wallingford CT 06492
  
  
 ---------------------------------------------------------------
 Warning -- This program may not be used in any manner that
 competes with the business of Gaussian, Inc. or will provide
 assistance to any competitor of Gaussian, Inc.  The licensee
 of this program is prohibited from giving any competitor of
 Gaussian, Inc. access to this program.  By using this program,
 the user acknowledges that Gaussian, Inc. is engaged in the
 business of creating and licensing software in the field of
 computational chemistry and represents and warrants to the
 licensee that it is not a competitor of Gaussian, Inc. and that
 it will not use this program in any manner prohibited above.
 ---------------------------------------------------------------
  

 Cite this work as:
 Gaussian 16, Revision A.03,
 M. J. Frisch, G. W. Trucks, H. B. Schlegel, G. E. Scuseria, 
 M. A. Robb, J. R. Cheeseman, G. Scalmani, V. Barone, 
 G. A. Petersson, H. Nakatsuji, X. Li, M. Caricato, A. V. Marenich, 
 J. Bloino, B. G. Janesko, R. Gomperts, B. Mennucci, H. P. Hratchian, 
 J. V. Ortiz, A. F. Izmaylov, J. L. Sonnenberg, D. Williams-Young, 
 F. Ding, F. Lipparini, F. Egidi, J. Goings, B. Peng, A. Petrone, 
 T. Henderson, D. Ranasinghe, V. G. Zakrzewski, J. Gao, N. Rega, 
 G. Zheng, W. Liang, M. Hada, M. Ehara, K. Toyota, R. Fukuda, 
 J. Hasegawa, M. Ishida, T. Nakajima, Y. Honda, O. Kitao, H. Nakai, 
 T. Vreven, K. Throssell, J. A. Montgomery, Jr., J. E. Peralta, 
 F. Ogliaro, M. J. Bearpark, J. J. Heyd, E. N. Brothers, K. N. Kudin, 
 V. N. Staroverov, T. A. Keith, R. Kobayashi, J. Normand, 
 K. Raghavachari, A. P. Rendell, J. C. Burant, S. S. Iyengar, 
 J. Tomasi, M. Cossi, J. M. Millam, M. Klene, C. Adamo, R. Cammi, 
 J. W. Ochterski, R. L. Martin, K. Morokuma, O. Farkas, 
 J. B. Foresman, and D. J. Fox, Gaussian, Inc., Wallingford CT, 2016.
 
 ******************************************
 Gaussian 16:  ES64L-G16RevA.03 25-Dec-2016
                12-Oct-2023 
 ******************************************
 %nprocshared=2
 Will use up to    2 processors via shared memory.
 %mem=2GB
 ------------------
 # ub3lyp/6-31+g(d)
 ------------------
 1/38=1,172=1/1;
 2/12=2,17=6,18=5,40=1/2;
 3/5=1,6=6,7=11,11=2,25=1,30=1,74=-5,116=2/1,2,3;
 4//1;
 5/5=2,38=5/2;
 6/7=2,8=2,9=2,10=2,28=1/1;
 99/5=1,9=1/99;
 --------------------
 tmpdir/M2_ref_63.gjf
 --------------------
 Symbolic Z-matrix:
 Charge =  0 Multiplicity = 1
 C                    -1.0331   -1.31842  -0.02875 
 C                    -1.85835  -0.68255  -1.13486 
 C                    -1.87263   0.65397  -1.11889 
 H                    -0.02608  -0.8672   -0.05302 
 H                    -1.41478  -0.93071   0.93497 
 H                    -0.99836  -2.40914  -0.07674 
 H                    -2.40083  -1.28897  -1.85186 
 H                    -1.29336   1.10891  -0.29393 
 H                    -2.45157   1.26792  -1.80134 
 
                          Input orientation:                          
 ---------------------------------------------------------------------
 Center     Atomic      Atomic             Coordinates (Angstroms)
 Number     Number       Type             X           Y           Z
 ---------------------------------------------------------------------
      1          6           0       -1.033097   -1.318418   -0.028751
      2          6           0       -1.858347   -0.682552   -1.134860
      3          6           0       -1.872634    0.653966   -1.118894
      4          1           0       -0.026080   -0.867203   -0.053023
      5          1           0       -1.414779   -0.930713    0.934974
      6          1           0       -0.998356   -2.409144   -0.076742
      7          1           0       -2.400827   -1.288970   -1.851861
      8          1           0       -1.293362    1.108909   -0.293926
      9          1           0       -2.451571    1.267922   -1.801344
 ---------------------------------------------------------------------
                    Distance matrix (angstroms):
                    1          2          3          4          5
     1  C    0.000000
     2  C    1.519486   0.000000
     3  C    2.404897   1.336690   0.000000
     4  H    1.103752   2.135807   2.619122   0.000000
     5  H    1.106690   2.131326   2.634239   1.705479   0.000000
     6  H    1.092334   2.200072   3.351580   1.823037   1.839222
     7  H    2.279316   1.084490   2.142716   3.008842   2.977766
     8  H    2.455600   2.058085   1.105939   2.359886   2.384323
     9  H    3.441411   2.144870   1.085287   3.674017   3.660105
                    6          7          8          9
     6  H    0.000000
     7  H    2.524433   0.000000
     8  H    3.537074   3.066507   0.000000
     9  H    4.313572   2.557895   1.907627   0.000000
 Stoichiometry    C3H6
 Framework group  C1[X(C3H6)]
 Deg. of freedom    21
 Full point group                 C1      NOp   1
 Largest Abelian subgroup         C1      NOp   1
 Largest concise Abelian subgroup C1      NOp   1
                         Standard orientation:                         
 ---------------------------------------------------------------------
 Center     Atomic      Atomic             Coordinates (Angstroms)
 Number     Number       Type             X           Y           Z
 ---------------------------------------------------------------------
      1          6           0       -1.191119   -0.158548    0.002870
      2          6           0        0.150633    0.554529   -0.004813
      3          6           0        1.211667   -0.258441   -0.010230
      4          1           0       -1.196240   -0.883305   -0.829579
      5          1           0       -1.200292   -0.839352    0.875329
      6          1           0       -2.048947    0.516808   -0.032058
      7          1           0        0.212806    1.637027    0.016381
      8          1           0        0.963719   -1.336101    0.006252
      9          1           0        2.241869    0.079684    0.036713
 ---------------------------------------------------------------------
 Rotational constants (GHZ):          40.3752036          10.2025814           8.5495301
 Standard basis: 6-31+G(d) (6D, 7F)
 There are    69 symmetry adapted cartesian basis functions of A   symmetry.
 There are    69 symmetry adapted basis functions of A   symmetry.
    69 basis functions,   120 primitive gaussians,    69 cartesian basis functions
    12 alpha electrons       12 beta electrons
       nuclear repulsion energy        71.1003890610 Hartrees.
 NAtoms=    9 NActive=    9 NUniq=    9 SFac= 1.00D+00 NAtFMM=   60 NAOKFM=F Big=F
 Integral buffers will be    131072 words long.
 Raffenetti 2 integral format.
 Two-electron integral symmetry is turned on.
 One-electron integrals computed using PRISM.
 NBasis=    69 RedAO= T EigKep=  1.75D-04  NBF=    69
 NBsUse=    69 1.00D-06 EigRej= -1.00D+00 NBFU=    69
 ExpMin= 4.38D-02 ExpMax= 3.05D+03 ExpMxC= 4.57D+02 IAcc=3 IRadAn=         5 AccDes= 0.00D+00
 Harris functional with IExCor=  402 and IRadAn=       5 diagonalized for initial guess.
 HarFok:  IExCor=  402 AccDes= 0.00D+00 IRadAn=         5 IDoV= 1 UseB2=F ITyADJ=14
 ICtDFT=  3500011 ScaDFX=  1.000000  1.000000  1.000000  1.000000
 FoFCou: FMM=F IPFlag=           0 FMFlag=      100000 FMFlg1=           0
         NFxFlg=           0 DoJE=T BraDBF=F KetDBF=T FulRan=T
         wScrn=  0.000000 ICntrl=       500 IOpCl=  0 I1Cent=   200000004 NGrid=           0
         NMat0=    1 NMatS0=      1 NMatT0=    0 NMatD0=    1 NMtDS0=    0 NMtDT0=    0
 Petite list used in FoFCou.
 Initial guess <Sx>= 0.0000 <Sy>= 0.0000 <Sz>= 0.0000 <S**2>= 0.0000 S= 0.0000
 Keep R1 and R2 ints in memory in canonical form, NReq=7619695.
 Requested convergence on RMS density matrix=1.00D-08 within 128 cycles.
 Requested convergence on MAX density matrix=1.00D-06.
 Requested convergence on             energy=1.00D-06.
 No special actions if energy rises.
 SCF Done:  E(UB3LYP) =  -117.901798725     A.U. after   11 cycles
            NFock= 11  Conv=0.16D-08     -V/T= 2.0107
 <Sx>= 0.0000 <Sy>= 0.0000 <Sz>= 0.0000 <S**2>=-0.0000 S=-0.0000
 <L.S>= 0.000000000000E+00
 Annihilation of the first spin contaminant:
 S**2 before annihilation    -0.0000,   after     0.0000

 **********************************************************************

            Population analysis using the SCF density.

 **********************************************************************

 Orbital symmetries:
 Alpha Orbitals:
       Occupied  (A) (A) (A) (A) (A) (A) (A) (A) (A) (A) (A) (A)
       Virtual   (A) (A) (A) (A) (A) (A) (A) (A) (A) (A) (A) (A)
                 (A) (A) (A) (A) (A) (A) (A) (A) (A) (A) (A) (A)
                 (A) (A) (A) (A) (A) (A) (A) (A) (A) (A) (A) (A)
                 (A) (A) (A) (A) (A) (A) (A) (A) (A) (A) (A) (A)
                 (A) (A) (A) (A) (A) (A) (A) (A) (A)
 Beta  Orbitals:
       Occupied  (A) (A) (A) (A) (A) (A) (A) (A) (A) (A) (A) (A)
       Virtual   (A) (A) (A) (A) (A) (A) (A) (A) (A) (A) (A) (A)
                 (A) (A) (A) (A) (A) (A) (A) (A) (A) (A) (A) (A)
                 (A) (A) (A) (A) (A) (A) (A) (A) (A) (A) (A) (A)
                 (A) (A) (A) (A) (A) (A) (A) (A) (A) (A) (A) (A)
                 (A) (A) (A) (A) (A) (A) (A) (A) (A)
 The electronic state is 1-A.
 Alpha  occ. eigenvalues --  -10.19689 -10.18669 -10.18207  -0.79262  -0.67748
 Alpha  occ. eigenvalues --   -0.55986  -0.47509  -0.41591  -0.40624  -0.38138
 Alpha  occ. eigenvalues --   -0.35245  -0.25346
 Alpha virt. eigenvalues --   -0.00742   0.01666   0.03155   0.03299   0.06127
 Alpha virt. eigenvalues --    0.06508   0.07666   0.09505   0.09547   0.11564
 Alpha virt. eigenvalues --    0.12713   0.12973   0.16589   0.19872   0.20641
 Alpha virt. eigenvalues --    0.22229   0.25458   0.27076   0.31055   0.34417
 Alpha virt. eigenvalues --    0.37549   0.59866   0.64144   0.66451   0.69431
 Alpha virt. eigenvalues --    0.70234   0.73567   0.78283   0.79610   0.88578
 Alpha virt. eigenvalues --    0.91237   0.93569   0.96832   1.01767   1.04165
 Alpha virt. eigenvalues --    1.09840   1.17868   1.25090   1.33466   1.41731
 Alpha virt. eigenvalues --    1.46829   1.70391   1.79706   1.88853   1.99620
 Alpha virt. eigenvalues --    2.13252   2.15953   2.22714   2.23791   2.23992
 Alpha virt. eigenvalues --    2.43806   2.56188   2.76476   2.81291   4.19549
 Alpha virt. eigenvalues --    4.21827   4.42160
  Beta  occ. eigenvalues --  -10.19689 -10.18669 -10.18207  -0.79262  -0.67748
  Beta  occ. eigenvalues --   -0.55986  -0.47509  -0.41591  -0.40624  -0.38138
  Beta  occ. eigenvalues --   -0.35245  -0.25346
  Beta virt. eigenvalues --   -0.00742   0.01666   0.03155   0.03299   0.06127
  Beta virt. eigenvalues --    0.06508   0.07666   0.09505   0.09547   0.11564
  Beta virt. eigenvalues --    0.12713   0.12973   0.16589   0.19872   0.20641
  Beta virt. eigenvalues --    0.22229   0.25458   0.27076   0.31055   0.34417
  Beta virt. eigenvalues --    0.37549   0.59866   0.64144   0.66451   0.69431
  Beta virt. eigenvalues --    0.70234   0.73567   0.78283   0.79610   0.88578
  Beta virt. eigenvalues --    0.91237   0.93569   0.96832   1.01767   1.04165
  Beta virt. eigenvalues --    1.09840   1.17868   1.25090   1.33466   1.41731
  Beta virt. eigenvalues --    1.46829   1.70391   1.79706   1.88853   1.99620
  Beta virt. eigenvalues --    2.13252   2.15953   2.22714   2.23791   2.23992
  Beta virt. eigenvalues --    2.43806   2.56188   2.76476   2.81291   4.19549
  Beta virt. eigenvalues --    4.21827   4.42160
          Condensed to atoms (all electrons):
               1          2          3          4          5          6
     1  C    5.536548   0.161222  -0.014887   0.406038   0.406337   0.395268
     2  C    0.161222   5.038920   0.601720  -0.063023  -0.060409  -0.057853
     3  C   -0.014887   0.601720   5.120329  -0.012949  -0.017037   0.013350
     4  H    0.406038  -0.063023  -0.012949   0.509932  -0.040553  -0.021427
     5  H    0.406337  -0.060409  -0.017037  -0.040553   0.510626  -0.020547
     6  H    0.395268  -0.057853   0.013350  -0.021427  -0.020547   0.494668
     7  H   -0.039150   0.336398   0.001947   0.002500   0.002409  -0.002653
     8  H    0.000913  -0.097691   0.418884   0.001335   0.001177   0.000501
     9  H    0.005467  -0.032490   0.377168   0.000081   0.000006  -0.000168
               7          8          9
     1  C   -0.039150   0.000913   0.005467
     2  C    0.336398  -0.097691  -0.032490
     3  C    0.001947   0.418884   0.377168
     4  H    0.002500   0.001335   0.000081
     5  H    0.002409   0.001177   0.000006
     6  H   -0.002653   0.000501  -0.000168
     7  H    0.515512   0.004537  -0.004541
     8  H    0.004537   0.529130  -0.030391
     9  H   -0.004541  -0.030391   0.501365
          Atomic-Atomic Spin Densities.
               1          2          3          4          5          6
     1  C   -0.000000   0.000000  -0.000000  -0.000000  -0.000000  -0.000000
     2  C    0.000000   0.000000  -0.000000   0.000000   0.000000   0.000000
     3  C   -0.000000  -0.000000  -0.000000  -0.000000   0.000000  -0.000000
     4  H   -0.000000   0.000000  -0.000000  -0.000000  -0.000000   0.000000
     5  H   -0.000000   0.000000   0.000000  -0.000000  -0.000000   0.000000
     6  H   -0.000000   0.000000  -0.000000   0.000000   0.000000   0.000000
     7  H   -0.000000   0.000000  -0.000000  -0.000000  -0.000000   0.000000
     8  H   -0.000000  -0.000000   0.000000   0.000000   0.000000   0.000000
     9  H    0.000000  -0.000000   0.000000  -0.000000  -0.000000   0.000000
               7          8          9
     1  C   -0.000000  -0.000000   0.000000
     2  C    0.000000  -0.000000  -0.000000
     3  C   -0.000000   0.000000   0.000000
     4  H   -0.000000   0.000000  -0.000000
     5  H   -0.000000   0.000000  -0.000000
     6  H    0.000000   0.000000   0.000000
     7  H   -0.000000  -0.000000  -0.000000
     8  H   -0.000000   0.000000   0.000000
     9  H   -0.000000   0.000000  -0.000000
 Mulliken charges and spin densities:
               1          2
     1  C   -0.857755  -0.000000
     2  C    0.173205   0.000000
     3  C   -0.488523  -0.000000
     4  H    0.218067  -0.000000
     5  H    0.217991   0.000000
     6  H    0.198862   0.000000
     7  H    0.183043  -0.000000
     8  H    0.171606   0.000000
     9  H    0.183503  -0.000000
 Sum of Mulliken charges =  -0.00000  -0.00000
 Mulliken charges and spin densities with hydrogens summed into heavy atoms:
               1          2
     1  C   -0.222834  -0.000000
     2  C    0.356248   0.000000
     3  C   -0.133414  -0.000000
 Electronic spatial extent (au):  <R**2>=            190.6970
 Charge=             -0.0000 electrons
 Dipole moment (field-independent basis, Debye):
    X=             -0.3494    Y=              0.0003    Z=              0.0743  Tot=              0.3572
 Quadrupole moment (field-independent basis, Debye-Ang):
   XX=            -20.0461   YY=            -18.9106   ZZ=            -22.5026
   XY=             -0.0972   XZ=              0.1633   YZ=             -0.0034
 Traceless Quadrupole moment (field-independent basis, Debye-Ang):
   XX=              0.4403   YY=              1.5758   ZZ=             -2.0161
   XY=             -0.0972   XZ=              0.1633   YZ=             -0.0034
 Octapole moment (field-independent basis, Debye-Ang**2):
  XXX=              2.0860  YYY=              0.9737  ZZZ=              0.2080  XYY=             -0.4702
  XXY=              1.5507  XXZ=              0.1716  XZZ=             -2.0640  YZZ=             -0.9098
  YYZ=              0.0862  XYZ=              0.0339
 Hexadecapole moment (field-independent basis, Debye-Ang**3):
 XXXX=           -171.2238 YYYY=            -59.7164 ZZZZ=            -35.7169 XXXY=             -1.0664
 XXXZ=              1.0031 YYYX=             -0.1218 YYYZ=              0.0947 ZZZX=              0.2034
 ZZZY=             -0.0338 XXYY=            -40.3604 XXZZ=            -38.8022 YYZZ=            -16.6568
 XXYZ=             -0.0695 YYXZ=              0.1506 ZZXY=              0.5299
 N-N= 7.110038906102D+01 E-N=-4.141548751358D+02  KE= 1.166500070493D+02
                          Isotropic Fermi Contact Couplings
        Atom                 a.u.       MegaHertz       Gauss      10(-4) cm-1
     1  C(13)              0.00000       0.00000       0.00000       0.00000
     2  C(13)              0.00000       0.00000       0.00000       0.00000
     3  C(13)             -0.00000      -0.00000      -0.00000      -0.00000
     4  H(1)               0.00000       0.00000       0.00000       0.00000
     5  H(1)              -0.00000      -0.00000      -0.00000      -0.00000
     6  H(1)               0.00000       0.00000       0.00000       0.00000
     7  H(1)              -0.00000      -0.00000      -0.00000      -0.00000
     8  H(1)               0.00000       0.00000       0.00000       0.00000
     9  H(1)              -0.00000      -0.00000      -0.00000      -0.00000
 --------------------------------------------------------
       Center         ----  Spin Dipole Couplings  ----
                      3XX-RR        3YY-RR        3ZZ-RR
 --------------------------------------------------------
     1   Atom        0.000000      0.000000      0.000000
     2   Atom        0.000000      0.000000      0.000000
     3   Atom        0.000000      0.000000      0.000000
     4   Atom        0.000000      0.000000      0.000000
     5   Atom        0.000000      0.000000      0.000000
     6   Atom        0.000000      0.000000      0.000000
     7   Atom        0.000000      0.000000      0.000000
     8   Atom        0.000000      0.000000      0.000000
     9   Atom        0.000000      0.000000      0.000000
 --------------------------------------------------------
                        XY            XZ            YZ
 --------------------------------------------------------
     1   Atom        0.000000      0.000000      0.000000
     2   Atom        0.000000      0.000000      0.000000
     3   Atom        0.000000      0.000000      0.000000
     4   Atom        0.000000      0.000000      0.000000
     5   Atom        0.000000      0.000000      0.000000
     6   Atom        0.000000      0.000000      0.000000
     7   Atom        0.000000      0.000000      0.000000
     8   Atom        0.000000      0.000000      0.000000
     9   Atom        0.000000      0.000000      0.000000
 --------------------------------------------------------


 ---------------------------------------------------------------------------------
              Anisotropic Spin Dipole Couplings in Principal Axis System
 ---------------------------------------------------------------------------------

       Atom             a.u.   MegaHertz   Gauss  10(-4) cm-1        Axes

              Baa     0.0000     0.000     0.000     0.000  1.0000  0.0000  0.0000
     1 C(13)  Bbb     0.0000     0.000     0.000     0.000 -0.0000  1.0000  0.0000
              Bcc     0.0000     0.000     0.000     0.000  0.0000  0.0000  1.0000
 
              Baa     0.0000     0.000     0.000     0.000  1.0000  0.0000  0.0000
     2 C(13)  Bbb     0.0000     0.000     0.000     0.000 -0.0000  1.0000  0.0000
              Bcc     0.0000     0.000     0.000     0.000  0.0000  0.0000  1.0000
 
              Baa     0.0000     0.000     0.000     0.000  1.0000  0.0000  0.0000
     3 C(13)  Bbb     0.0000     0.000     0.000     0.000 -0.0000  1.0000  0.0000
              Bcc     0.0000     0.000     0.000     0.000  0.0000  0.0000  1.0000
 
              Baa     0.0000     0.000     0.000     0.000  1.0000  0.0000  0.0000
     4 H(1)   Bbb     0.0000     0.000     0.000     0.000 -0.0000  1.0000  0.0000
              Bcc     0.0000     0.000     0.000     0.000  0.0000  0.0000  1.0000
 
              Baa     0.0000     0.000     0.000     0.000  1.0000  0.0000  0.0000
     5 H(1)   Bbb     0.0000     0.000     0.000     0.000 -0.0000  1.0000  0.0000
              Bcc     0.0000     0.000     0.000     0.000  0.0000  0.0000  1.0000
 
              Baa     0.0000     0.000     0.000     0.000  1.0000  0.0000  0.0000
     6 H(1)   Bbb     0.0000     0.000     0.000     0.000 -0.0000  1.0000  0.0000
              Bcc     0.0000     0.000     0.000     0.000  0.0000  0.0000  1.0000
 
              Baa     0.0000     0.000     0.000     0.000  1.0000  0.0000  0.0000
     7 H(1)   Bbb     0.0000     0.000     0.000     0.000 -0.0000  1.0000  0.0000
              Bcc     0.0000     0.000     0.000     0.000  0.0000  0.0000  1.0000
 
              Baa     0.0000     0.000     0.000     0.000  1.0000  0.0000  0.0000
     8 H(1)   Bbb     0.0000     0.000     0.000     0.000 -0.0000  1.0000  0.0000
              Bcc     0.0000     0.000     0.000     0.000  0.0000  0.0000  1.0000
 
              Baa     0.0000     0.000     0.000     0.000  1.0000  0.0000  0.0000
     9 H(1)   Bbb     0.0000     0.000     0.000     0.000 -0.0000  1.0000  0.0000
              Bcc     0.0000     0.000     0.000     0.000  0.0000  0.0000  1.0000
 

 ---------------------------------------------------------------------------------

 1\1\GINC-NODE32\SP\UB3LYP\6-31+G(d)\C3H6\YANZ\12-Oct-2023\0\\# ub3lyp/
 6-31+g(d)\\tmpdir/M2_ref_63.gjf\\0,1\C,0,-1.0330974,-1.3184176,-0.0287
 5126\C,0,-1.85834667,-0.6825524,-1.1348603\C,0,-1.87263393,0.65396624,
 -1.11889449\H,0,-0.0260796,-0.86720344,-0.05302296\H,0,-1.41477893,-0.
 93071278,0.93497418\H,0,-0.99835638,-2.40914399,-0.07674181\H,0,-2.400
 82691,-1.28897047,-1.85186107\H,0,-1.29336186,1.10890914,-0.29392632\H
 ,0,-2.4515713,1.26792245,-1.8013437\\Version=ES64L-G16RevA.03\State=1-
 A\HF=-117.9017987\S2=0.\S2-1=0.\S2A=0.\RMSD=1.554e-09\Dipole=0.0277503
 ,-0.1099911,0.0829293\Quadrupole=-0.624002,0.7019251,-0.0779231,0.1405
 634,1.1119521,0.4277755\PG=C01 [X(C3H6)]\\@


 LIFE IS SO UNCERTAIN - EAT DESSERT FIRST.
 Job cpu time:       0 days  0 hours  0 minutes 29.3 seconds.
 Elapsed time:       0 days  0 hours  0 minutes 14.8 seconds.
 File lengths (MBytes):  RWF=      6 Int=      0 D2E=      0 Chk=      1 Scr=      1
 Normal termination of Gaussian 16 at Thu Oct 12 15:12:43 2023.
