 Entering Gaussian System, Link 0=g16
 Initial command:
 /share/apps/gaussian/g16/l1.exe "/tmp/58286.mgr/Gau-29854.inp" -scrdir="/tmp/58286.mgr/"
 Entering Link 1 = /share/apps/gaussian/g16/l1.exe PID=     29855.
  
 Copyright (c) 1988,1990,1992,1993,1995,1998,2003,2009,2016,
            Gaussian, Inc.  All Rights Reserved.
  
 This is part of the Gaussian(R) 16 program.  It is based on
 the Gaussian(R) 09 system (copyright 2009, Gaussian, Inc.),
 the Gaussian(R) 03 system (copyright 2003, Gaussian, Inc.),
 the Gaussian(R) 98 system (copyright 1998, Gaussian, Inc.),
 the Gaussian(R) 94 system (copyright 1995, Gaussian, Inc.),
 the Gaussian 92(TM) system (copyright 1992, Gaussian, Inc.),
 the Gaussian 90(TM) system (copyright 1990, Gaussian, Inc.),
 the Gaussian 88(TM) system (copyright 1988, Gaussian, Inc.),
 the Gaussian 86(TM) system (copyright 1986, Carnegie Mellon
 University), and the Gaussian 82(TM) system (copyright 1983,
 Carnegie Mellon University). Gaussian is a federally registered
 trademark of Gaussian, Inc.
  
 This software contains proprietary and confidential information,
 including trade secrets, belonging to Gaussian, Inc.
  
 This software is provided under written license and may be
 used, copied, transmitted, or stored only in accord with that
 written license.
  
 The following legend is applicable only to US Government
 contracts under FAR:
  
                    RESTRICTED RIGHTS LEGEND
  
 Use, reproduction and disclosure by the US Government is
 subject to restrictions as set forth in subparagraphs (a)
 and (c) of the Commercial Computer Software - Restricted
 Rights clause in FAR 52.227-19.
  
 Gaussian, Inc.
 340 Quinnipiac St., Bldg. 40, Wallingford CT 06492
  
  
 ---------------------------------------------------------------
 Warning -- This program may not be used in any manner that
 competes with the business of Gaussian, Inc. or will provide
 assistance to any competitor of Gaussian, Inc.  The licensee
 of this program is prohibited from giving any competitor of
 Gaussian, Inc. access to this program.  By using this program,
 the user acknowledges that Gaussian, Inc. is engaged in the
 business of creating and licensing software in the field of
 computational chemistry and represents and warrants to the
 licensee that it is not a competitor of Gaussian, Inc. and that
 it will not use this program in any manner prohibited above.
 ---------------------------------------------------------------
  

 Cite this work as:
 Gaussian 16, Revision A.03,
 M. J. Frisch, G. W. Trucks, H. B. Schlegel, G. E. Scuseria, 
 M. A. Robb, J. R. Cheeseman, G. Scalmani, V. Barone, 
 G. A. Petersson, H. Nakatsuji, X. Li, M. Caricato, A. V. Marenich, 
 J. Bloino, B. G. Janesko, R. Gomperts, B. Mennucci, H. P. Hratchian, 
 J. V. Ortiz, A. F. Izmaylov, J. L. Sonnenberg, D. Williams-Young, 
 F. Ding, F. Lipparini, F. Egidi, J. Goings, B. Peng, A. Petrone, 
 T. Henderson, D. Ranasinghe, V. G. Zakrzewski, J. Gao, N. Rega, 
 G. Zheng, W. Liang, M. Hada, M. Ehara, K. Toyota, R. Fukuda, 
 J. Hasegawa, M. Ishida, T. Nakajima, Y. Honda, O. Kitao, H. Nakai, 
 T. Vreven, K. Throssell, J. A. Montgomery, Jr., J. E. Peralta, 
 F. Ogliaro, M. J. Bearpark, J. J. Heyd, E. N. Brothers, K. N. Kudin, 
 V. N. Staroverov, T. A. Keith, R. Kobayashi, J. Normand, 
 K. Raghavachari, A. P. Rendell, J. C. Burant, S. S. Iyengar, 
 J. Tomasi, M. Cossi, J. M. Millam, M. Klene, C. Adamo, R. Cammi, 
 J. W. Ochterski, R. L. Martin, K. Morokuma, O. Farkas, 
 J. B. Foresman, and D. J. Fox, Gaussian, Inc., Wallingford CT, 2016.
 
 ******************************************
 Gaussian 16:  ES64L-G16RevA.03 25-Dec-2016
                12-Oct-2023 
 ******************************************
 %nprocshared=2
 Will use up to    2 processors via shared memory.
 %mem=2GB
 ------------------
 # ub3lyp/6-31+g(d)
 ------------------
 1/38=1,172=1/1;
 2/12=2,17=6,18=5,40=1/2;
 3/5=1,6=6,7=11,11=2,25=1,30=1,74=-5,116=2/1,2,3;
 4//1;
 5/5=2,38=5/2;
 6/7=2,8=2,9=2,10=2,28=1/1;
 99/5=1,9=1/99;
 --------------------
 tmpdir/M2_ref_10.gjf
 --------------------
 Symbolic Z-matrix:
 Charge =  0 Multiplicity = 1
 C                     0.35803  -0.6951   -0.06228 
 C                     1.56914  -1.37271  -0.06898 
 H                     1.58782  -2.45944  -0.09246 
 O                     0.33367   0.54069  -0.02227 
 H                    -0.64899  -1.14631  -0.03801 
 O                     2.61978  -0.73184  -0.05704 
 
                          Input orientation:                          
 ---------------------------------------------------------------------
 Center     Atomic      Atomic             Coordinates (Angstroms)
 Number     Number       Type             X           Y           Z
 ---------------------------------------------------------------------
      1          6           0        0.358030   -0.695095   -0.062281
      2          6           0        1.569139   -1.372715   -0.068976
      3          1           0        1.587816   -2.459440   -0.092460
      4          8           0        0.333667    0.540695   -0.022268
      5          1           0       -0.648988   -1.146310   -0.038009
      6          8           0        2.619782   -0.731835   -0.057038
 ---------------------------------------------------------------------
                    Distance matrix (angstroms):
                    1          2          3          4          5
     1  C    0.000000
     2  C    1.387803   0.000000
     3  H    2.150859   1.087139   0.000000
     4  O    1.236678   2.278093   3.252480   0.000000
     5  H    1.103752   2.229866   2.594334   1.952393   0.000000
     6  O    2.262056   1.230740   2.012667   2.616651   3.294997
                    6
     6  O    0.000000
 Stoichiometry    C2H2O2
 Framework group  C1[X(C2H2O2)]
 Deg. of freedom    12
 Full point group                 C1      NOp   1
 Largest Abelian subgroup         C1      NOp   1
 Largest concise Abelian subgroup C1      NOp   1
                         Standard orientation:                         
 ---------------------------------------------------------------------
 Center     Atomic      Atomic             Coordinates (Angstroms)
 Number     Number       Type             X           Y           Z
 ---------------------------------------------------------------------
      1          6           0        0.685575    0.508317   -0.009476
      2          6           0       -0.702182    0.511137    0.001452
      3          1           0       -1.247303    1.451729    0.002886
      4          8           0        1.308368   -0.560030    0.002192
      5          1           0        1.346260    1.391881    0.023365
      6          8           0       -1.308283   -0.560013    0.000545
 ---------------------------------------------------------------------
 Rotational constants (GHZ):          25.0063952           7.2496850           5.6204951
 Standard basis: 6-31+G(d) (6D, 7F)
 There are    80 symmetry adapted cartesian basis functions of A   symmetry.
 There are    80 symmetry adapted basis functions of A   symmetry.
    80 basis functions,   136 primitive gaussians,    80 cartesian basis functions
    15 alpha electrons       15 beta electrons
       nuclear repulsion energy       105.9858893251 Hartrees.
 NAtoms=    6 NActive=    6 NUniq=    6 SFac= 1.00D+00 NAtFMM=   60 NAOKFM=F Big=F
 Integral buffers will be    131072 words long.
 Raffenetti 2 integral format.
 Two-electron integral symmetry is turned on.
 One-electron integrals computed using PRISM.
 NBasis=    80 RedAO= T EigKep=  1.28D-04  NBF=    80
 NBsUse=    80 1.00D-06 EigRej= -1.00D+00 NBFU=    80
 ExpMin= 4.38D-02 ExpMax= 5.48D+03 ExpMxC= 8.25D+02 IAcc=3 IRadAn=         5 AccDes= 0.00D+00
 Harris functional with IExCor=  402 and IRadAn=       5 diagonalized for initial guess.
 HarFok:  IExCor=  402 AccDes= 0.00D+00 IRadAn=         5 IDoV= 1 UseB2=F ITyADJ=14
 ICtDFT=  3500011 ScaDFX=  1.000000  1.000000  1.000000  1.000000
 FoFCou: FMM=F IPFlag=           0 FMFlag=      100000 FMFlg1=           0
         NFxFlg=           0 DoJE=T BraDBF=F KetDBF=T FulRan=T
         wScrn=  0.000000 ICntrl=       500 IOpCl=  0 I1Cent=   200000004 NGrid=           0
         NMat0=    1 NMatS0=      1 NMatT0=    0 NMatD0=    1 NMtDS0=    0 NMtDT0=    0
 Petite list used in FoFCou.
 Initial guess <Sx>= 0.0000 <Sy>= 0.0000 <Sz>= 0.0000 <S**2>=-0.0000 S=-0.0000
 Keep R1 and R2 ints in memory in canonical form, NReq=12310292.
 Requested convergence on RMS density matrix=1.00D-08 within 128 cycles.
 Requested convergence on MAX density matrix=1.00D-06.
 Requested convergence on             energy=1.00D-06.
 No special actions if energy rises.
 SCF Done:  E(UB3LYP) =  -227.807286577     A.U. after   11 cycles
            NFock= 11  Conv=0.67D-08     -V/T= 2.0083
 <Sx>= 0.0000 <Sy>= 0.0000 <Sz>= 0.0000 <S**2>=-0.0000 S=-0.0000
 <L.S>= 0.000000000000E+00
 Annihilation of the first spin contaminant:
 S**2 before annihilation    -0.0000,   after     0.0000

 **********************************************************************

            Population analysis using the SCF density.

 **********************************************************************

 Orbital symmetries:
 Alpha Orbitals:
       Occupied  (A) (A) (A) (A) (A) (A) (A) (A) (A) (A) (A) (A)
                 (A) (A) (A)
       Virtual   (A) (A) (A) (A) (A) (A) (A) (A) (A) (A) (A) (A)
                 (A) (A) (A) (A) (A) (A) (A) (A) (A) (A) (A) (A)
                 (A) (A) (A) (A) (A) (A) (A) (A) (A) (A) (A) (A)
                 (A) (A) (A) (A) (A) (A) (A) (A) (A) (A) (A) (A)
                 (A) (A) (A) (A) (A) (A) (A) (A) (A) (A) (A) (A)
                 (A) (A) (A) (A) (A)
 Beta  Orbitals:
       Occupied  (A) (A) (A) (A) (A) (A) (A) (A) (A) (A) (A) (A)
                 (A) (A) (A)
       Virtual   (A) (A) (A) (A) (A) (A) (A) (A) (A) (A) (A) (A)
                 (A) (A) (A) (A) (A) (A) (A) (A) (A) (A) (A) (A)
                 (A) (A) (A) (A) (A) (A) (A) (A) (A) (A) (A) (A)
                 (A) (A) (A) (A) (A) (A) (A) (A) (A) (A) (A) (A)
                 (A) (A) (A) (A) (A) (A) (A) (A) (A) (A) (A) (A)
                 (A) (A) (A) (A) (A)
 The electronic state is 1-A.
 Alpha  occ. eigenvalues --  -19.20508 -19.20070 -10.31305 -10.31001  -1.10327
 Alpha  occ. eigenvalues --   -1.06327  -0.76607  -0.58765  -0.56931  -0.48504
 Alpha  occ. eigenvalues --   -0.46576  -0.45488  -0.38906  -0.31606  -0.29497
 Alpha virt. eigenvalues --   -0.15038  -0.00159   0.01537   0.02671   0.03189
 Alpha virt. eigenvalues --    0.04638   0.07182   0.07526   0.09478   0.14745
 Alpha virt. eigenvalues --    0.17004   0.18177   0.20451   0.21231   0.23538
 Alpha virt. eigenvalues --    0.24550   0.26390   0.27113   0.29480   0.32363
 Alpha virt. eigenvalues --    0.35509   0.40506   0.52390   0.60493   0.60569
 Alpha virt. eigenvalues --    0.65410   0.76120   0.77417   0.81970   0.88187
 Alpha virt. eigenvalues --    0.99219   1.08683   1.12396   1.13193   1.15108
 Alpha virt. eigenvalues --    1.21114   1.21343   1.27001   1.29502   1.32116
 Alpha virt. eigenvalues --    1.40442   1.46152   1.54362   1.63712   1.67291
 Alpha virt. eigenvalues --    1.71642   1.75784   1.84090   1.87680   2.00783
 Alpha virt. eigenvalues --    2.06521   2.10144   2.25275   2.38427   2.39947
 Alpha virt. eigenvalues --    2.48296   2.64565   2.70222   2.89302   3.01705
 Alpha virt. eigenvalues --    3.17261   3.98911   4.19133   4.25916   4.41947
  Beta  occ. eigenvalues --  -19.20508 -19.20070 -10.31305 -10.31001  -1.10327
  Beta  occ. eigenvalues --   -1.06327  -0.76607  -0.58765  -0.56931  -0.48504
  Beta  occ. eigenvalues --   -0.46576  -0.45488  -0.38906  -0.31606  -0.29497
  Beta virt. eigenvalues --   -0.15038  -0.00159   0.01537   0.02671   0.03189
  Beta virt. eigenvalues --    0.04638   0.07182   0.07526   0.09478   0.14745
  Beta virt. eigenvalues --    0.17004   0.18177   0.20451   0.21231   0.23538
  Beta virt. eigenvalues --    0.24550   0.26390   0.27113   0.29480   0.32363
  Beta virt. eigenvalues --    0.35509   0.40506   0.52390   0.60493   0.60569
  Beta virt. eigenvalues --    0.65410   0.76120   0.77417   0.81970   0.88187
  Beta virt. eigenvalues --    0.99219   1.08683   1.12396   1.13193   1.15108
  Beta virt. eigenvalues --    1.21114   1.21343   1.27001   1.29502   1.32116
  Beta virt. eigenvalues --    1.40442   1.46152   1.54362   1.63712   1.67291
  Beta virt. eigenvalues --    1.71642   1.75784   1.84090   1.87680   2.00783
  Beta virt. eigenvalues --    2.06521   2.10144   2.25275   2.38427   2.39947
  Beta virt. eigenvalues --    2.48296   2.64565   2.70222   2.89302   3.01705
  Beta virt. eigenvalues --    3.17261   3.98911   4.19133   4.25916   4.41947
          Condensed to atoms (all electrons):
               1          2          3          4          5          6
     1  C    5.496727  -0.253398  -0.114419   0.533964   0.404056  -0.177170
     2  C   -0.253398   5.496050   0.386332  -0.175941  -0.119455   0.535076
     3  H   -0.114419   0.386332   0.593349   0.004614   0.008256  -0.061130
     4  O    0.533964  -0.175941   0.004614   8.014052  -0.069244  -0.002548
     5  H    0.404056  -0.119455   0.008256  -0.069244   0.587105   0.003574
     6  O   -0.177170   0.535076  -0.061130  -0.002548   0.003574   8.007587
          Atomic-Atomic Spin Densities.
               1          2          3          4          5          6
     1  C    0.000000  -0.000000  -0.000000   0.000000   0.000000  -0.000000
     2  C   -0.000000   0.000000   0.000000  -0.000000  -0.000000   0.000000
     3  H   -0.000000   0.000000   0.000000   0.000000   0.000000  -0.000000
     4  O    0.000000  -0.000000   0.000000  -0.000000  -0.000000   0.000000
     5  H    0.000000  -0.000000   0.000000  -0.000000  -0.000000   0.000000
     6  O   -0.000000   0.000000  -0.000000   0.000000   0.000000   0.000000
 Mulliken charges and spin densities:
               1          2
     1  C    0.110240  -0.000000
     2  C    0.131336   0.000000
     3  H    0.182999   0.000000
     4  O   -0.304897  -0.000000
     5  H    0.185709  -0.000000
     6  O   -0.305388   0.000000
 Sum of Mulliken charges =  -0.00000  -0.00000
 Mulliken charges and spin densities with hydrogens summed into heavy atoms:
               1          2
     1  C    0.295949  -0.000000
     2  C    0.314335   0.000000
     4  O   -0.304897  -0.000000
     6  O   -0.305388   0.000000
 Electronic spatial extent (au):  <R**2>=            225.8246
 Charge=             -0.0000 electrons
 Dipole moment (field-independent basis, Debye):
    X=             -0.0304    Y=              3.8756    Z=             -0.0028  Tot=              3.8757
 Quadrupole moment (field-independent basis, Debye-Ang):
   XX=            -26.1675   YY=            -22.1558   ZZ=            -21.4260
   XY=              0.0372   XZ=              0.0134   YZ=              0.0080
 Traceless Quadrupole moment (field-independent basis, Debye-Ang):
   XX=             -2.9178   YY=              1.0940   ZZ=              1.8238
   XY=              0.0372   XZ=              0.0134   YZ=              0.0080
 Octapole moment (field-independent basis, Debye-Ang**2):
  XXX=              0.3178  YYY=             -0.1852  ZZZ=              0.0094  XYY=             -0.1916
  XXY=              5.2981  XXZ=              0.0003  XZZ=             -0.0836  YZZ=             -1.1261
  YYZ=              0.0416  XYZ=              0.0306
 Hexadecapole moment (field-independent basis, Debye-Ang**3):
 XXXX=           -193.2802 YYYY=            -75.7128 ZZZZ=            -19.3240 XXXY=              0.5829
 XXXZ=              0.0883 YYYX=             -0.3092 YYYZ=              0.0214 ZZZX=              0.0282
 ZZZY=             -0.0199 XXYY=            -40.2945 XXZZ=            -32.5612 YYZZ=            -15.9276
 XXYZ=              0.0704 YYXZ=              0.0693 ZZXY=             -0.0499
 N-N= 1.059858893251D+02 E-N=-7.458007687237D+02  KE= 2.259266968552D+02
                          Isotropic Fermi Contact Couplings
        Atom                 a.u.       MegaHertz       Gauss      10(-4) cm-1
     1  C(13)             -0.00000      -0.00000      -0.00000      -0.00000
     2  C(13)             -0.00000      -0.00000      -0.00000      -0.00000
     3  H(1)               0.00000       0.00000       0.00000       0.00000
     4  O(17)             -0.00000       0.00000       0.00000       0.00000
     5  H(1)               0.00000       0.00000       0.00000       0.00000
     6  O(17)             -0.00000       0.00000       0.00000       0.00000
 --------------------------------------------------------
       Center         ----  Spin Dipole Couplings  ----
                      3XX-RR        3YY-RR        3ZZ-RR
 --------------------------------------------------------
     1   Atom        0.000000      0.000000      0.000000
     2   Atom        0.000000      0.000000      0.000000
     3   Atom        0.000000      0.000000      0.000000
     4   Atom        0.000000      0.000000      0.000000
     5   Atom        0.000000      0.000000      0.000000
     6   Atom        0.000000      0.000000      0.000000
 --------------------------------------------------------
                        XY            XZ            YZ
 --------------------------------------------------------
     1   Atom        0.000000      0.000000      0.000000
     2   Atom        0.000000      0.000000      0.000000
     3   Atom        0.000000      0.000000      0.000000
     4   Atom        0.000000      0.000000      0.000000
     5   Atom        0.000000      0.000000      0.000000
     6   Atom        0.000000      0.000000      0.000000
 --------------------------------------------------------


 ---------------------------------------------------------------------------------
              Anisotropic Spin Dipole Couplings in Principal Axis System
 ---------------------------------------------------------------------------------

       Atom             a.u.   MegaHertz   Gauss  10(-4) cm-1        Axes

              Baa     0.0000     0.000     0.000     0.000  1.0000  0.0000  0.0000
     1 C(13)  Bbb     0.0000     0.000     0.000     0.000 -0.0000  1.0000  0.0000
              Bcc     0.0000     0.000     0.000     0.000  0.0000  0.0000  1.0000
 
              Baa     0.0000     0.000     0.000     0.000  1.0000  0.0000  0.0000
     2 C(13)  Bbb     0.0000     0.000     0.000     0.000 -0.0000  1.0000  0.0000
              Bcc     0.0000     0.000     0.000     0.000  0.0000  0.0000  1.0000
 
              Baa     0.0000     0.000     0.000     0.000  1.0000  0.0000  0.0000
     3 H(1)   Bbb     0.0000     0.000     0.000     0.000 -0.0000  1.0000  0.0000
              Bcc     0.0000     0.000     0.000     0.000  0.0000  0.0000  1.0000
 
              Baa     0.0000    -0.000    -0.000    -0.000  1.0000  0.0000  0.0000
     4 O(17)  Bbb     0.0000    -0.000    -0.000    -0.000 -0.0000  1.0000  0.0000
              Bcc     0.0000    -0.000    -0.000    -0.000  0.0000  0.0000  1.0000
 
              Baa     0.0000     0.000     0.000     0.000  1.0000  0.0000  0.0000
     5 H(1)   Bbb     0.0000     0.000     0.000     0.000 -0.0000  1.0000  0.0000
              Bcc     0.0000     0.000     0.000     0.000  0.0000  0.0000  1.0000
 
              Baa     0.0000    -0.000    -0.000    -0.000  1.0000  0.0000  0.0000
     6 O(17)  Bbb     0.0000    -0.000    -0.000    -0.000 -0.0000  1.0000  0.0000
              Bcc     0.0000    -0.000    -0.000    -0.000  0.0000  0.0000  1.0000
 

 ---------------------------------------------------------------------------------

 1\1\GINC-NODE32\SP\UB3LYP\6-31+G(d)\C2H2O2\YANZ\12-Oct-2023\0\\# ub3ly
 p/6-31+g(d)\\tmpdir/M2_ref_10.gjf\\0,1\C,0,0.35803021,-0.69509548,-0.0
 6228099\C,0,1.5691386,-1.37271489,-0.06897614\H,0,1.58781592,-2.459440
 17,-0.09245997\O,0,0.33366656,0.54069463,-0.02226801\H,0,-0.64898759,-
 1.14630964,-0.03800929\O,0,2.6197821,-0.73183501,-0.05703807\\Version=
 ES64L-G16RevA.03\State=1-A\HF=-227.8072866\S2=0.\S2-1=0.\S2A=0.\RMSD=6
 .652e-09\Dipole=-0.7313492,-1.3376267,-0.0304646\Quadrupole=-1.4399,0.
 0847295,1.3551705,1.2821269,0.0226162,-0.0316585\PG=C01 [X(C2H2O2)]\\@


 ... IT IS NO ONE DREAME THAT
     CAN PLEASE THESE ALL ...

                -- BEN JONSON
 Job cpu time:       0 days  0 hours  0 minutes 26.4 seconds.
 Elapsed time:       0 days  0 hours  0 minutes 13.4 seconds.
 File lengths (MBytes):  RWF=     10 Int=      0 D2E=      0 Chk=      2 Scr=      1
 Normal termination of Gaussian 16 at Thu Oct 12 15:11:21 2023.
