 Entering Gaussian System, Link 0=g16
 Initial command:
 /share/apps/gaussian/g16/l1.exe "/tmp/58286.mgr/Gau-29908.inp" -scrdir="/tmp/58286.mgr/"
 Entering Link 1 = /share/apps/gaussian/g16/l1.exe PID=     29909.
  
 Copyright (c) 1988,1990,1992,1993,1995,1998,2003,2009,2016,
            Gaussian, Inc.  All Rights Reserved.
  
 This is part of the Gaussian(R) 16 program.  It is based on
 the Gaussian(R) 09 system (copyright 2009, Gaussian, Inc.),
 the Gaussian(R) 03 system (copyright 2003, Gaussian, Inc.),
 the Gaussian(R) 98 system (copyright 1998, Gaussian, Inc.),
 the Gaussian(R) 94 system (copyright 1995, Gaussian, Inc.),
 the Gaussian 92(TM) system (copyright 1992, Gaussian, Inc.),
 the Gaussian 90(TM) system (copyright 1990, Gaussian, Inc.),
 the Gaussian 88(TM) system (copyright 1988, Gaussian, Inc.),
 the Gaussian 86(TM) system (copyright 1986, Carnegie Mellon
 University), and the Gaussian 82(TM) system (copyright 1983,
 Carnegie Mellon University). Gaussian is a federally registered
 trademark of Gaussian, Inc.
  
 This software contains proprietary and confidential information,
 including trade secrets, belonging to Gaussian, Inc.
  
 This software is provided under written license and may be
 used, copied, transmitted, or stored only in accord with that
 written license.
  
 The following legend is applicable only to US Government
 contracts under FAR:
  
                    RESTRICTED RIGHTS LEGEND
  
 Use, reproduction and disclosure by the US Government is
 subject to restrictions as set forth in subparagraphs (a)
 and (c) of the Commercial Computer Software - Restricted
 Rights clause in FAR 52.227-19.
  
 Gaussian, Inc.
 340 Quinnipiac St., Bldg. 40, Wallingford CT 06492
  
  
 ---------------------------------------------------------------
 Warning -- This program may not be used in any manner that
 competes with the business of Gaussian, Inc. or will provide
 assistance to any competitor of Gaussian, Inc.  The licensee
 of this program is prohibited from giving any competitor of
 Gaussian, Inc. access to this program.  By using this program,
 the user acknowledges that Gaussian, Inc. is engaged in the
 business of creating and licensing software in the field of
 computational chemistry and represents and warrants to the
 licensee that it is not a competitor of Gaussian, Inc. and that
 it will not use this program in any manner prohibited above.
 ---------------------------------------------------------------
  

 Cite this work as:
 Gaussian 16, Revision A.03,
 M. J. Frisch, G. W. Trucks, H. B. Schlegel, G. E. Scuseria, 
 M. A. Robb, J. R. Cheeseman, G. Scalmani, V. Barone, 
 G. A. Petersson, H. Nakatsuji, X. Li, M. Caricato, A. V. Marenich, 
 J. Bloino, B. G. Janesko, R. Gomperts, B. Mennucci, H. P. Hratchian, 
 J. V. Ortiz, A. F. Izmaylov, J. L. Sonnenberg, D. Williams-Young, 
 F. Ding, F. Lipparini, F. Egidi, J. Goings, B. Peng, A. Petrone, 
 T. Henderson, D. Ranasinghe, V. G. Zakrzewski, J. Gao, N. Rega, 
 G. Zheng, W. Liang, M. Hada, M. Ehara, K. Toyota, R. Fukuda, 
 J. Hasegawa, M. Ishida, T. Nakajima, Y. Honda, O. Kitao, H. Nakai, 
 T. Vreven, K. Throssell, J. A. Montgomery, Jr., J. E. Peralta, 
 F. Ogliaro, M. J. Bearpark, J. J. Heyd, E. N. Brothers, K. N. Kudin, 
 V. N. Staroverov, T. A. Keith, R. Kobayashi, J. Normand, 
 K. Raghavachari, A. P. Rendell, J. C. Burant, S. S. Iyengar, 
 J. Tomasi, M. Cossi, J. M. Millam, M. Klene, C. Adamo, R. Cammi, 
 J. W. Ochterski, R. L. Martin, K. Morokuma, O. Farkas, 
 J. B. Foresman, and D. J. Fox, Gaussian, Inc., Wallingford CT, 2016.
 
 ******************************************
 Gaussian 16:  ES64L-G16RevA.03 25-Dec-2016
                12-Oct-2023 
 ******************************************
 %nprocshared=2
 Will use up to    2 processors via shared memory.
 %mem=2GB
 ------------------
 # ub3lyp/6-31+g(d)
 ------------------
 1/38=1,172=1/1;
 2/12=2,17=6,18=5,40=1/2;
 3/5=1,6=6,7=11,11=2,25=1,30=1,74=-5,116=2/1,2,3;
 4//1;
 5/5=2,38=5/2;
 6/7=2,8=2,9=2,10=2,28=1/1;
 99/5=1,9=1/99;
 --------------------
 tmpdir/M2_ref_16.gjf
 --------------------
 Symbolic Z-matrix:
 Charge =  0 Multiplicity = 1
 C                     0.33039   0.70664  -0.0169 
 C                     1.51457   1.42596   0.00432 
 C                     0.35803  -0.6951   -0.06228 
 H                    -0.68507   1.12345   0.01035 
 C                     2.73397   0.74492  -0.01998 
 H                     1.49361   2.51222   0.04105 
 
                          Input orientation:                          
 ---------------------------------------------------------------------
 Center     Atomic      Atomic             Coordinates (Angstroms)
 Number     Number       Type             X           Y           Z
 ---------------------------------------------------------------------
      1          6           0        0.330395    0.706637   -0.016895
      2          6           0        1.514569    1.425958    0.004316
      3          6           0        0.358030   -0.695095   -0.062281
      4          1           0       -0.685075    1.123452    0.010351
      5          6           0        2.733973    0.744920   -0.019982
      6          1           0        1.493615    2.512221    0.041045
 ---------------------------------------------------------------------
                    Distance matrix (angstroms):
                    1          2          3          4          5
     1  C    0.000000
     2  C    1.385691   0.000000
     3  C    1.402740   2.416792   0.000000
     4  H    1.098024   2.220355   2.097727   0.000000
     5  C    2.403885   1.396907   2.778586   3.440072   0.000000
     6  H    2.148621   1.087087   3.403984   2.583856   2.159992
                    6
     6  H    0.000000
 Stoichiometry    C4H2
 Framework group  C1[X(C4H2)]
 Deg. of freedom    12
 Full point group                 C1      NOp   1
 Largest Abelian subgroup         C1      NOp   1
 Largest concise Abelian subgroup C1      NOp   1
                         Standard orientation:                         
 ---------------------------------------------------------------------
 Center     Atomic      Atomic             Coordinates (Angstroms)
 Number     Number       Type             X           Y           Z
 ---------------------------------------------------------------------
      1          6           0       -0.685669    0.489347   -0.001536
      2          6           0        0.700021    0.491222   -0.000877
      3          6           0       -1.388753   -0.724469   -0.000078
      4          1           0       -1.337874    1.372623    0.008844
      5          6           0        1.389832   -0.723482    0.001092
      6          1           0        1.245290    1.431668   -0.000449
 ---------------------------------------------------------------------
 Rotational constants (GHZ):          22.8076688           8.2561934           6.0618692
 Standard basis: 6-31+G(d) (6D, 7F)
 There are    80 symmetry adapted cartesian basis functions of A   symmetry.
 There are    80 symmetry adapted basis functions of A   symmetry.
    80 basis functions,   136 primitive gaussians,    80 cartesian basis functions
    13 alpha electrons       13 beta electrons
       nuclear repulsion energy        77.3938469370 Hartrees.
 NAtoms=    6 NActive=    6 NUniq=    6 SFac= 1.00D+00 NAtFMM=   60 NAOKFM=F Big=F
 Integral buffers will be    131072 words long.
 Raffenetti 2 integral format.
 Two-electron integral symmetry is turned on.
 One-electron integrals computed using PRISM.
 NBasis=    80 RedAO= T EigKep=  4.28D-05  NBF=    80
 NBsUse=    80 1.00D-06 EigRej= -1.00D+00 NBFU=    80
 ExpMin= 4.38D-02 ExpMax= 3.05D+03 ExpMxC= 4.57D+02 IAcc=3 IRadAn=         5 AccDes= 0.00D+00
 Harris functional with IExCor=  402 and IRadAn=       5 diagonalized for initial guess.
 HarFok:  IExCor=  402 AccDes= 0.00D+00 IRadAn=         5 IDoV= 1 UseB2=F ITyADJ=14
 ICtDFT=  3500011 ScaDFX=  1.000000  1.000000  1.000000  1.000000
 FoFCou: FMM=F IPFlag=           0 FMFlag=      100000 FMFlg1=           0
         NFxFlg=           0 DoJE=T BraDBF=F KetDBF=T FulRan=T
         wScrn=  0.000000 ICntrl=       500 IOpCl=  0 I1Cent=   200000004 NGrid=           0
         NMat0=    1 NMatS0=      1 NMatT0=    0 NMatD0=    1 NMtDS0=    0 NMtDT0=    0
 Petite list used in FoFCou.
 Initial guess <Sx>= 0.0000 <Sy>= 0.0000 <Sz>= 0.0000 <S**2>= 0.0000 S= 0.0000
 Keep R1 and R2 ints in memory in canonical form, NReq=12310292.
 Requested convergence on RMS density matrix=1.00D-08 within 128 cycles.
 Requested convergence on MAX density matrix=1.00D-06.
 Requested convergence on             energy=1.00D-06.
 No special actions if energy rises.
 SCF Done:  E(UB3LYP) =  -153.310600744     A.U. after   14 cycles
            NFock= 14  Conv=0.35D-08     -V/T= 2.0107
 <Sx>= 0.0000 <Sy>= 0.0000 <Sz>= 0.0000 <S**2>=-0.0000 S=-0.0000
 <L.S>= 0.000000000000E+00
 Annihilation of the first spin contaminant:
 S**2 before annihilation    -0.0000,   after    -0.0000

 **********************************************************************

            Population analysis using the SCF density.

 **********************************************************************

 Orbital symmetries:
 Alpha Orbitals:
       Occupied  (A) (A) (A) (A) (A) (A) (A) (A) (A) (A) (A) (A)
                 (A)
       Virtual   (A) (A) (A) (A) (A) (A) (A) (A) (A) (A) (A) (A)
                 (A) (A) (A) (A) (A) (A) (A) (A) (A) (A) (A) (A)
                 (A) (A) (A) (A) (A) (A) (A) (A) (A) (A) (A) (A)
                 (A) (A) (A) (A) (A) (A) (A) (A) (A) (A) (A) (A)
                 (A) (A) (A) (A) (A) (A) (A) (A) (A) (A) (A) (A)
                 (A) (A) (A) (A) (A) (A) (A)
 Beta  Orbitals:
       Occupied  (A) (A) (A) (A) (A) (A) (A) (A) (A) (A) (A) (A)
                 (A)
       Virtual   (A) (A) (A) (A) (A) (A) (A) (A) (A) (A) (A) (A)
                 (A) (A) (A) (A) (A) (A) (A) (A) (A) (A) (A) (A)
                 (A) (A) (A) (A) (A) (A) (A) (A) (A) (A) (A) (A)
                 (A) (A) (A) (A) (A) (A) (A) (A) (A) (A) (A) (A)
                 (A) (A) (A) (A) (A) (A) (A) (A) (A) (A) (A) (A)
                 (A) (A) (A) (A) (A) (A) (A)
 The electronic state is 1-A.
 Alpha  occ. eigenvalues --  -10.29313 -10.29154 -10.24548 -10.24473  -0.86397
 Alpha  occ. eigenvalues --   -0.73506  -0.61787  -0.51652  -0.49887  -0.37416
 Alpha  occ. eigenvalues --   -0.33415  -0.31164  -0.25390
 Alpha virt. eigenvalues --   -0.14894  -0.11412  -0.08384   0.00211   0.02700
 Alpha virt. eigenvalues --    0.04115   0.04518   0.05748   0.06638   0.08025
 Alpha virt. eigenvalues --    0.09057   0.09115   0.10616   0.11973   0.12804
 Alpha virt. eigenvalues --    0.15278   0.16438   0.17283   0.17601   0.20370
 Alpha virt. eigenvalues --    0.20903   0.25698   0.28256   0.37671   0.43274
 Alpha virt. eigenvalues --    0.57463   0.63135   0.63502   0.67412   0.69029
 Alpha virt. eigenvalues --    0.69226   0.69622   0.73047   0.73093   0.75659
 Alpha virt. eigenvalues --    0.79130   0.79704   0.89545   0.94120   1.05319
 Alpha virt. eigenvalues --    1.05773   1.14931   1.23554   1.29236   1.39145
 Alpha virt. eigenvalues --    1.47692   1.63746   1.65444   1.71653   1.72574
 Alpha virt. eigenvalues --    1.74504   1.87316   1.88115   1.99904   2.15277
 Alpha virt. eigenvalues --    2.19130   2.20244   2.25118   2.45618   2.54189
 Alpha virt. eigenvalues --    2.56125   2.76808   2.94765   4.05618   4.12806
 Alpha virt. eigenvalues --    4.21016   4.41963
  Beta  occ. eigenvalues --  -10.29313 -10.29154 -10.24548 -10.24473  -0.86397
  Beta  occ. eigenvalues --   -0.73506  -0.61787  -0.51652  -0.49887  -0.37416
  Beta  occ. eigenvalues --   -0.33415  -0.31164  -0.25390
  Beta virt. eigenvalues --   -0.14894  -0.11412  -0.08384   0.00211   0.02700
  Beta virt. eigenvalues --    0.04115   0.04518   0.05748   0.06638   0.08025
  Beta virt. eigenvalues --    0.09057   0.09115   0.10616   0.11973   0.12804
  Beta virt. eigenvalues --    0.15278   0.16438   0.17283   0.17601   0.20370
  Beta virt. eigenvalues --    0.20903   0.25698   0.28256   0.37671   0.43274
  Beta virt. eigenvalues --    0.57463   0.63135   0.63502   0.67412   0.69029
  Beta virt. eigenvalues --    0.69226   0.69622   0.73047   0.73093   0.75659
  Beta virt. eigenvalues --    0.79130   0.79704   0.89545   0.94120   1.05319
  Beta virt. eigenvalues --    1.05773   1.14931   1.23554   1.29236   1.39145
  Beta virt. eigenvalues --    1.47692   1.63746   1.65444   1.71653   1.72574
  Beta virt. eigenvalues --    1.74504   1.87316   1.88115   1.99904   2.15277
  Beta virt. eigenvalues --    2.19130   2.20244   2.25118   2.45618   2.54189
  Beta virt. eigenvalues --    2.56125   2.76808   2.94765   4.05618   4.12806
  Beta virt. eigenvalues --    4.21016   4.41963
          Condensed to atoms (all electrons):
               1          2          3          4          5          6
     1  C    7.341924  -0.859466  -1.738871   0.152017   0.906823   0.065851
     2  C   -0.859466   7.366878   0.890025   0.073367  -1.754905   0.164206
     3  C   -1.738871   0.890025   7.822883   0.131484  -0.677914  -0.050209
     4  H    0.152017   0.073367   0.131484   0.448172  -0.048923  -0.007359
     5  C    0.906823  -1.754905  -0.677914  -0.048923   7.821525   0.128156
     6  H    0.065851   0.164206  -0.050209  -0.007359   0.128156   0.450056
          Atomic-Atomic Spin Densities.
               1          2          3          4          5          6
     1  C   -0.000000   0.000000   0.000000   0.000000  -0.000000  -0.000000
     2  C    0.000000  -0.000000  -0.000000  -0.000000   0.000000   0.000000
     3  C    0.000000  -0.000000  -0.000000  -0.000000   0.000000   0.000000
     4  H    0.000000  -0.000000  -0.000000   0.000000   0.000000   0.000000
     5  C   -0.000000   0.000000   0.000000   0.000000  -0.000000  -0.000000
     6  H   -0.000000   0.000000   0.000000   0.000000  -0.000000  -0.000000
 Mulliken charges and spin densities:
               1          2
     1  C    0.131723  -0.000000
     2  C    0.119895   0.000000
     3  C   -0.377397  -0.000000
     4  H    0.251242   0.000000
     5  C   -0.374761  -0.000000
     6  H    0.249298   0.000000
 Sum of Mulliken charges =  -0.00000   0.00000
 Mulliken charges and spin densities with hydrogens summed into heavy atoms:
               1          2
     1  C    0.382965  -0.000000
     2  C    0.369193   0.000000
     3  C   -0.377397  -0.000000
     5  C   -0.374761  -0.000000
 Electronic spatial extent (au):  <R**2>=            219.2899
 Charge=             -0.0000 electrons
 Dipole moment (field-independent basis, Debye):
    X=              0.0042    Y=              3.6788    Z=              0.0095  Tot=              3.6788
 Quadrupole moment (field-independent basis, Debye-Ang):
   XX=            -25.6529   YY=            -24.5004   ZZ=            -26.8711
   XY=             -0.1119   XZ=             -0.0305   YZ=              0.0208
 Traceless Quadrupole moment (field-independent basis, Debye-Ang):
   XX=              0.0219   YY=              1.1744   ZZ=             -1.1963
   XY=             -0.1119   XZ=             -0.0305   YZ=              0.0208
 Octapole moment (field-independent basis, Debye-Ang**2):
  XXX=              0.1297  YYY=             16.2635  ZZZ=              0.0125  XYY=              0.0590
  XXY=             15.0108  XXZ=              0.0445  XZZ=              0.0731  YZZ=              2.5050
  YYZ=              0.0195  XYZ=             -0.0164
 Hexadecapole moment (field-independent basis, Debye-Ang**3):
 XXXX=           -218.9770 YYYY=           -103.1998 ZZZZ=            -36.5282 XXXY=             -1.2370
 XXXZ=             -0.1408 YYYX=              0.2712 YYYZ=              0.0577 ZZZX=             -0.0428
 ZZZY=              0.0208 XXYY=            -62.0504 XXZZ=            -47.6995 YYZZ=            -24.5439
 XXYZ=              0.0392 YYXZ=             -0.0450 ZZXY=             -0.0092
 N-N= 7.739384693702D+01 E-N=-5.090586171088D+02  KE= 1.516814470099D+02
                          Isotropic Fermi Contact Couplings
        Atom                 a.u.       MegaHertz       Gauss      10(-4) cm-1
     1  C(13)              0.00000       0.00000       0.00000       0.00000
     2  C(13)              0.00000       0.00000       0.00000       0.00000
     3  C(13)              0.00000       0.00000       0.00000       0.00000
     4  H(1)               0.00000       0.00000       0.00000       0.00000
     5  C(13)              0.00000       0.00000       0.00000       0.00000
     6  H(1)              -0.00000      -0.00000      -0.00000      -0.00000
 --------------------------------------------------------
       Center         ----  Spin Dipole Couplings  ----
                      3XX-RR        3YY-RR        3ZZ-RR
 --------------------------------------------------------
     1   Atom        0.000000     -0.000000      0.000000
     2   Atom       -0.000000      0.000000      0.000000
     3   Atom        0.000000     -0.000000      0.000000
     4   Atom       -0.000000     -0.000000      0.000000
     5   Atom       -0.000000      0.000000     -0.000000
     6   Atom       -0.000000      0.000000      0.000000
 --------------------------------------------------------
                        XY            XZ            YZ
 --------------------------------------------------------
     1   Atom        0.000000      0.000000     -0.000000
     2   Atom       -0.000000     -0.000000     -0.000000
     3   Atom       -0.000000     -0.000000     -0.000000
     4   Atom        0.000000     -0.000000      0.000000
     5   Atom       -0.000000     -0.000000     -0.000000
     6   Atom       -0.000000      0.000000      0.000000
 --------------------------------------------------------


 ---------------------------------------------------------------------------------
              Anisotropic Spin Dipole Couplings in Principal Axis System
 ---------------------------------------------------------------------------------

       Atom             a.u.   MegaHertz   Gauss  10(-4) cm-1        Axes

              Baa    -0.0000    -0.000    -0.000    -0.000 -0.5408  0.8395  0.0527
     1 C(13)  Bbb     0.0000     0.000     0.000     0.000 -0.2197 -0.2015  0.9545
              Bcc     0.0000     0.000     0.000     0.000  0.8119  0.5047  0.2934
 
              Baa    -0.0000    -0.000    -0.000    -0.000  0.9917  0.0703  0.1075
     2 C(13)  Bbb     0.0000     0.000     0.000     0.000 -0.1282  0.4847  0.8652
              Bcc     0.0000     0.000     0.000     0.000 -0.0087  0.8718 -0.4897
 
              Baa    -0.0000    -0.000    -0.000    -0.000  0.1793  0.9751  0.1304
     3 C(13)  Bbb     0.0000     0.000     0.000     0.000 -0.0192 -0.1291  0.9914
              Bcc     0.0000     0.000     0.000     0.000  0.9836 -0.1803 -0.0044
 
              Baa    -0.0000    -0.000    -0.000    -0.000  0.7438 -0.6660  0.0565
     4 H(1)   Bbb     0.0000     0.000     0.000     0.000 -0.1198 -0.0497  0.9916
              Bcc     0.0000     0.000     0.000     0.000  0.6576  0.7443  0.1167
 
              Baa    -0.0000    -0.000    -0.000    -0.000  0.6888  0.3880  0.6124
     5 C(13)  Bbb    -0.0000    -0.000    -0.000    -0.000 -0.5800 -0.2119  0.7866
              Bcc     0.0000     0.000     0.000     0.000 -0.4349  0.8970 -0.0791
 
              Baa    -0.0000    -0.000    -0.000    -0.000  0.9274  0.3659 -0.0770
     6 H(1)   Bbb     0.0000     0.000     0.000     0.000  0.1474 -0.1684  0.9746
              Bcc     0.0000     0.000     0.000     0.000 -0.3437  0.9153  0.2101
 

 ---------------------------------------------------------------------------------

 1\1\GINC-NODE32\SP\UB3LYP\6-31+G(d)\C4H2\YANZ\12-Oct-2023\0\\# ub3lyp/
 6-31+g(d)\\tmpdir/M2_ref_16.gjf\\0,1\C,0,0.33039499,0.70663737,-0.0168
 9504\C,0,1.51456879,1.42595753,0.00431597\C,0,0.35803021,-0.69509548,-
 0.06228099\H,0,-0.68507474,1.12345238,0.01035115\C,0,2.73397309,0.7449
 2017,-0.01998226\H,0,1.49361496,2.51222136,0.0410451\\Version=ES64L-G1
 6RevA.03\State=1-A\HF=-153.3106007\S2=0.\S2-1=0.\S2A=0.\RMSD=3.532e-09
 \Dipole=-0.7485466,1.2378449,0.0472009\Quadrupole=0.3199257,0.5675387,
 -0.8874644,-0.4169826,-0.0448399,0.0512904\PG=C01 [X(C4H2)]\\@


 If fifty million people say a stupid thing,
 it is still a stupid thing.
                   -- Anatole France
 Job cpu time:       0 days  0 hours  0 minutes 31.3 seconds.
 Elapsed time:       0 days  0 hours  0 minutes 16.0 seconds.
 File lengths (MBytes):  RWF=     10 Int=      0 D2E=      0 Chk=      2 Scr=      1
 Normal termination of Gaussian 16 at Thu Oct 12 15:11:32 2023.
