 Entering Gaussian System, Link 0=g16
 Initial command:
 /share/apps/gaussian/g16/l1.exe "/tmp/58286.mgr/Gau-29847.inp" -scrdir="/tmp/58286.mgr/"
 Entering Link 1 = /share/apps/gaussian/g16/l1.exe PID=     29848.
  
 Copyright (c) 1988,1990,1992,1993,1995,1998,2003,2009,2016,
            Gaussian, Inc.  All Rights Reserved.
  
 This is part of the Gaussian(R) 16 program.  It is based on
 the Gaussian(R) 09 system (copyright 2009, Gaussian, Inc.),
 the Gaussian(R) 03 system (copyright 2003, Gaussian, Inc.),
 the Gaussian(R) 98 system (copyright 1998, Gaussian, Inc.),
 the Gaussian(R) 94 system (copyright 1995, Gaussian, Inc.),
 the Gaussian 92(TM) system (copyright 1992, Gaussian, Inc.),
 the Gaussian 90(TM) system (copyright 1990, Gaussian, Inc.),
 the Gaussian 88(TM) system (copyright 1988, Gaussian, Inc.),
 the Gaussian 86(TM) system (copyright 1986, Carnegie Mellon
 University), and the Gaussian 82(TM) system (copyright 1983,
 Carnegie Mellon University). Gaussian is a federally registered
 trademark of Gaussian, Inc.
  
 This software contains proprietary and confidential information,
 including trade secrets, belonging to Gaussian, Inc.
  
 This software is provided under written license and may be
 used, copied, transmitted, or stored only in accord with that
 written license.
  
 The following legend is applicable only to US Government
 contracts under FAR:
  
                    RESTRICTED RIGHTS LEGEND
  
 Use, reproduction and disclosure by the US Government is
 subject to restrictions as set forth in subparagraphs (a)
 and (c) of the Commercial Computer Software - Restricted
 Rights clause in FAR 52.227-19.
  
 Gaussian, Inc.
 340 Quinnipiac St., Bldg. 40, Wallingford CT 06492
  
  
 ---------------------------------------------------------------
 Warning -- This program may not be used in any manner that
 competes with the business of Gaussian, Inc. or will provide
 assistance to any competitor of Gaussian, Inc.  The licensee
 of this program is prohibited from giving any competitor of
 Gaussian, Inc. access to this program.  By using this program,
 the user acknowledges that Gaussian, Inc. is engaged in the
 business of creating and licensing software in the field of
 computational chemistry and represents and warrants to the
 licensee that it is not a competitor of Gaussian, Inc. and that
 it will not use this program in any manner prohibited above.
 ---------------------------------------------------------------
  

 Cite this work as:
 Gaussian 16, Revision A.03,
 M. J. Frisch, G. W. Trucks, H. B. Schlegel, G. E. Scuseria, 
 M. A. Robb, J. R. Cheeseman, G. Scalmani, V. Barone, 
 G. A. Petersson, H. Nakatsuji, X. Li, M. Caricato, A. V. Marenich, 
 J. Bloino, B. G. Janesko, R. Gomperts, B. Mennucci, H. P. Hratchian, 
 J. V. Ortiz, A. F. Izmaylov, J. L. Sonnenberg, D. Williams-Young, 
 F. Ding, F. Lipparini, F. Egidi, J. Goings, B. Peng, A. Petrone, 
 T. Henderson, D. Ranasinghe, V. G. Zakrzewski, J. Gao, N. Rega, 
 G. Zheng, W. Liang, M. Hada, M. Ehara, K. Toyota, R. Fukuda, 
 J. Hasegawa, M. Ishida, T. Nakajima, Y. Honda, O. Kitao, H. Nakai, 
 T. Vreven, K. Throssell, J. A. Montgomery, Jr., J. E. Peralta, 
 F. Ogliaro, M. J. Bearpark, J. J. Heyd, E. N. Brothers, K. N. Kudin, 
 V. N. Staroverov, T. A. Keith, R. Kobayashi, J. Normand, 
 K. Raghavachari, A. P. Rendell, J. C. Burant, S. S. Iyengar, 
 J. Tomasi, M. Cossi, J. M. Millam, M. Klene, C. Adamo, R. Cammi, 
 J. W. Ochterski, R. L. Martin, K. Morokuma, O. Farkas, 
 J. B. Foresman, and D. J. Fox, Gaussian, Inc., Wallingford CT, 2016.
 
 ******************************************
 Gaussian 16:  ES64L-G16RevA.03 25-Dec-2016
                12-Oct-2023 
 ******************************************
 %nprocshared=2
 Will use up to    2 processors via shared memory.
 %mem=2GB
 ------------------
 # ub3lyp/6-31+g(d)
 ------------------
 1/38=1,172=1/1;
 2/12=2,17=6,18=5,40=1/2;
 3/5=1,6=6,7=11,11=2,25=1,30=1,74=-5,116=2/1,2,3;
 4//1;
 5/5=2,38=5/2;
 6/7=2,8=2,9=2,10=2,28=1/1;
 99/5=1,9=1/99;
 -------------------
 tmpdir/M2_ref_1.gjf
 -------------------
 Symbolic Z-matrix:
 Charge =  0 Multiplicity = 1
 C                     2.76086  -0.64578  -0.05544 
 C                     2.73397   0.74492  -0.01998 
 C                     1.56914  -1.37271  -0.06898 
 H                     3.71236  -1.16918  -0.07324 
 C                     1.51457   1.42596   0.00432 
 H                     3.66449   1.3048   -0.00921 
 
                          Input orientation:                          
 ---------------------------------------------------------------------
 Center     Atomic      Atomic             Coordinates (Angstroms)
 Number     Number       Type             X           Y           Z
 ---------------------------------------------------------------------
      1          6           0        2.760863   -0.645777   -0.055435
      2          6           0        2.733973    0.744920   -0.019982
      3          6           0        1.569139   -1.372715   -0.068976
      4          1           0        3.712363   -1.169184   -0.073236
      5          6           0        1.514569    1.425958    0.004316
      6          1           0        3.664487    1.304805   -0.009211
 ---------------------------------------------------------------------
                    Distance matrix (angstroms):
                    1          2          3          4          5
     1  C    0.000000
     2  C    1.391409   0.000000
     3  C    1.396005   2.417358   0.000000
     4  H    1.086104   2.150320   2.152871   0.000000
     5  C    2.418451   1.396907   2.800164   3.401628   0.000000
     6  H    2.150219   1.086021   3.400466   2.475280   2.153371
                    6
     6  H    0.000000
 Stoichiometry    C4H2
 Framework group  C1[X(C4H2)]
 Deg. of freedom    12
 Full point group                 C1      NOp   1
 Largest Abelian subgroup         C1      NOp   1
 Largest concise Abelian subgroup C1      NOp   1
                         Standard orientation:                         
 ---------------------------------------------------------------------
 Center     Atomic      Atomic             Coordinates (Angstroms)
 Number     Number       Type             X           Y           Z
 ---------------------------------------------------------------------
      1          6           0        0.696141    0.483819    0.000253
      2          6           0       -0.695268    0.484424   -0.000499
      3          6           0        1.399496   -0.722051   -0.000161
      4          1           0        1.238532    1.424794    0.000605
      5          6           0       -1.400667   -0.721296    0.000269
      6          1           0       -1.236748    1.425828    0.000223
 ---------------------------------------------------------------------
 Rotational constants (GHZ):          22.9099756           8.1843942           6.0301687
 Standard basis: 6-31+G(d) (6D, 7F)
 There are    80 symmetry adapted cartesian basis functions of A   symmetry.
 There are    80 symmetry adapted basis functions of A   symmetry.
    80 basis functions,   136 primitive gaussians,    80 cartesian basis functions
    13 alpha electrons       13 beta electrons
       nuclear repulsion energy        77.3666621705 Hartrees.
 NAtoms=    6 NActive=    6 NUniq=    6 SFac= 1.00D+00 NAtFMM=   60 NAOKFM=F Big=F
 Integral buffers will be    131072 words long.
 Raffenetti 2 integral format.
 Two-electron integral symmetry is turned on.
 One-electron integrals computed using PRISM.
 NBasis=    80 RedAO= T EigKep=  4.31D-05  NBF=    80
 NBsUse=    80 1.00D-06 EigRej= -1.00D+00 NBFU=    80
 ExpMin= 4.38D-02 ExpMax= 3.05D+03 ExpMxC= 4.57D+02 IAcc=3 IRadAn=         5 AccDes= 0.00D+00
 Harris functional with IExCor=  402 and IRadAn=       5 diagonalized for initial guess.
 HarFok:  IExCor=  402 AccDes= 0.00D+00 IRadAn=         5 IDoV= 1 UseB2=F ITyADJ=14
 ICtDFT=  3500011 ScaDFX=  1.000000  1.000000  1.000000  1.000000
 FoFCou: FMM=F IPFlag=           0 FMFlag=      100000 FMFlg1=           0
         NFxFlg=           0 DoJE=T BraDBF=F KetDBF=T FulRan=T
         wScrn=  0.000000 ICntrl=       500 IOpCl=  0 I1Cent=   200000004 NGrid=           0
         NMat0=    1 NMatS0=      1 NMatT0=    0 NMatD0=    1 NMtDS0=    0 NMtDT0=    0
 Petite list used in FoFCou.
 Initial guess <Sx>= 0.0000 <Sy>= 0.0000 <Sz>= 0.0000 <S**2>= 0.0000 S= 0.0000
 Keep R1 and R2 ints in memory in canonical form, NReq=12310292.
 Requested convergence on RMS density matrix=1.00D-08 within 128 cycles.
 Requested convergence on MAX density matrix=1.00D-06.
 Requested convergence on             energy=1.00D-06.
 No special actions if energy rises.
 SCF Done:  E(UB3LYP) =  -153.312875901     A.U. after   13 cycles
            NFock= 13  Conv=0.24D-08     -V/T= 2.0106
 <Sx>= 0.0000 <Sy>= 0.0000 <Sz>= 0.0000 <S**2>=-0.0000 S=-0.0000
 <L.S>= 0.000000000000E+00
 Annihilation of the first spin contaminant:
 S**2 before annihilation    -0.0000,   after     0.0000

 **********************************************************************

            Population analysis using the SCF density.

 **********************************************************************

 Orbital symmetries:
 Alpha Orbitals:
       Occupied  (A) (A) (A) (A) (A) (A) (A) (A) (A) (A) (A) (A)
                 (A)
       Virtual   (A) (A) (A) (A) (A) (A) (A) (A) (A) (A) (A) (A)
                 (A) (A) (A) (A) (A) (A) (A) (A) (A) (A) (A) (A)
                 (A) (A) (A) (A) (A) (A) (A) (A) (A) (A) (A) (A)
                 (A) (A) (A) (A) (A) (A) (A) (A) (A) (A) (A) (A)
                 (A) (A) (A) (A) (A) (A) (A) (A) (A) (A) (A) (A)
                 (A) (A) (A) (A) (A) (A) (A)
 Beta  Orbitals:
       Occupied  (A) (A) (A) (A) (A) (A) (A) (A) (A) (A) (A) (A)
                 (A)
       Virtual   (A) (A) (A) (A) (A) (A) (A) (A) (A) (A) (A) (A)
                 (A) (A) (A) (A) (A) (A) (A) (A) (A) (A) (A) (A)
                 (A) (A) (A) (A) (A) (A) (A) (A) (A) (A) (A) (A)
                 (A) (A) (A) (A) (A) (A) (A) (A) (A) (A) (A) (A)
                 (A) (A) (A) (A) (A) (A) (A) (A) (A) (A) (A) (A)
                 (A) (A) (A) (A) (A) (A) (A)
 The electronic state is 1-A.
 Alpha  occ. eigenvalues --  -10.29235 -10.29222 -10.24454 -10.24398  -0.86369
 Alpha  occ. eigenvalues --   -0.73495  -0.62233  -0.51191  -0.50175  -0.37378
 Alpha  occ. eigenvalues --   -0.33381  -0.31295  -0.25489
 Alpha virt. eigenvalues --   -0.14805  -0.11687  -0.08300   0.00159   0.02829
 Alpha virt. eigenvalues --    0.04141   0.04506   0.05740   0.06642   0.08250
 Alpha virt. eigenvalues --    0.09104   0.09136   0.10610   0.11955   0.12793
 Alpha virt. eigenvalues --    0.15286   0.16395   0.17335   0.17584   0.20901
 Alpha virt. eigenvalues --    0.21015   0.26186   0.28234   0.37261   0.43237
 Alpha virt. eigenvalues --    0.57379   0.63157   0.63309   0.67472   0.69020
 Alpha virt. eigenvalues --    0.69287   0.69543   0.73070   0.73074   0.75281
 Alpha virt. eigenvalues --    0.79082   0.79253   0.90041   0.94184   1.05763
 Alpha virt. eigenvalues --    1.06063   1.17090   1.24050   1.29226   1.39209
 Alpha virt. eigenvalues --    1.47567   1.63431   1.65377   1.71773   1.71990
 Alpha virt. eigenvalues --    1.74630   1.87477   1.87587   1.98739   2.15492
 Alpha virt. eigenvalues --    2.19477   2.19684   2.26742   2.45858   2.53506
 Alpha virt. eigenvalues --    2.56201   2.77282   2.94531   4.05454   4.12904
 Alpha virt. eigenvalues --    4.20942   4.42184
  Beta  occ. eigenvalues --  -10.29235 -10.29222 -10.24454 -10.24398  -0.86369
  Beta  occ. eigenvalues --   -0.73495  -0.62233  -0.51191  -0.50175  -0.37378
  Beta  occ. eigenvalues --   -0.33381  -0.31295  -0.25489
  Beta virt. eigenvalues --   -0.14805  -0.11687  -0.08300   0.00159   0.02829
  Beta virt. eigenvalues --    0.04141   0.04506   0.05740   0.06642   0.08250
  Beta virt. eigenvalues --    0.09104   0.09136   0.10610   0.11955   0.12793
  Beta virt. eigenvalues --    0.15286   0.16395   0.17335   0.17584   0.20901
  Beta virt. eigenvalues --    0.21015   0.26186   0.28234   0.37261   0.43237
  Beta virt. eigenvalues --    0.57379   0.63157   0.63309   0.67472   0.69020
  Beta virt. eigenvalues --    0.69287   0.69543   0.73070   0.73074   0.75281
  Beta virt. eigenvalues --    0.79082   0.79253   0.90041   0.94184   1.05763
  Beta virt. eigenvalues --    1.06063   1.17090   1.24050   1.29226   1.39209
  Beta virt. eigenvalues --    1.47567   1.63431   1.65377   1.71773   1.71990
  Beta virt. eigenvalues --    1.74630   1.87477   1.87587   1.98739   2.15492
  Beta virt. eigenvalues --    2.19477   2.19684   2.26742   2.45858   2.53506
  Beta virt. eigenvalues --    2.56201   2.77282   2.94531   4.05454   4.12904
  Beta virt. eigenvalues --    4.20942   4.42184
          Condensed to atoms (all electrons):
               1          2          3          4          5          6
     1  C    7.343490  -0.812484  -1.748348   0.163985   0.853692   0.066298
     2  C   -0.812484   7.339124   0.854214   0.066310  -1.743164   0.164428
     3  C   -1.748348   0.854214   7.841845   0.127022  -0.644932  -0.048204
     4  H    0.163985   0.066310   0.127022   0.451474  -0.048156  -0.009049
     5  C    0.853692  -1.743164  -0.644932  -0.048156   7.835970   0.126711
     6  H    0.066298   0.164428  -0.048204  -0.009049   0.126711   0.451453
          Atomic-Atomic Spin Densities.
               1          2          3          4          5          6
     1  C   -0.000000   0.000000  -0.000000   0.000000   0.000000  -0.000000
     2  C    0.000000  -0.000000  -0.000000  -0.000000  -0.000000   0.000000
     3  C   -0.000000  -0.000000   0.000000  -0.000000  -0.000000   0.000000
     4  H    0.000000  -0.000000  -0.000000  -0.000000  -0.000000   0.000000
     5  C    0.000000  -0.000000  -0.000000  -0.000000   0.000000  -0.000000
     6  H   -0.000000   0.000000   0.000000   0.000000  -0.000000  -0.000000
 Mulliken charges and spin densities:
               1          2
     1  C    0.133367   0.000000
     2  C    0.131572  -0.000000
     3  C   -0.381597  -0.000000
     4  H    0.248414  -0.000000
     5  C   -0.380119  -0.000000
     6  H    0.248364  -0.000000
 Sum of Mulliken charges =  -0.00000   0.00000
 Mulliken charges and spin densities with hydrogens summed into heavy atoms:
               1          2
     1  C    0.381781   0.000000
     2  C    0.379936  -0.000000
     3  C   -0.381597  -0.000000
     5  C   -0.380119  -0.000000
 Electronic spatial extent (au):  <R**2>=            219.8496
 Charge=             -0.0000 electrons
 Dipole moment (field-independent basis, Debye):
    X=              0.0031    Y=              3.7213    Z=              0.0009  Tot=              3.7213
 Quadrupole moment (field-independent basis, Debye-Ang):
   XX=            -25.8921   YY=            -24.3295   ZZ=            -26.8438
   XY=              0.0018   XZ=              0.0022   YZ=              0.0021
 Traceless Quadrupole moment (field-independent basis, Debye-Ang):
   XX=             -0.2036   YY=              1.3590   ZZ=             -1.1553
   XY=              0.0018   XZ=              0.0022   YZ=              0.0021
 Octapole moment (field-independent basis, Debye-Ang**2):
  XXX=              0.0350  YYY=             16.7151  ZZZ=              0.0013  XYY=             -0.0011
  XXY=             14.7592  XXZ=              0.0043  XZZ=              0.0060  YZZ=              2.5315
  YYZ=              0.0021  XYZ=             -0.0016
 Hexadecapole moment (field-independent basis, Debye-Ang**3):
 XXXX=           -220.8890 YYYY=           -102.0759 ZZZZ=            -36.4432 XXXY=             -0.0188
 XXXZ=              0.0144 YYYX=              0.0162 YYYZ=              0.0062 ZZZX=              0.0017
 ZZZY=              0.0021 XXYY=            -62.6855 XXZZ=            -47.8246 YYZZ=            -24.4602
 XXYZ=              0.0034 YYXZ=              0.0013 ZZXY=              0.0012
 N-N= 7.736666217045D+01 E-N=-5.090203370990D+02  KE= 1.517003388000D+02
                          Isotropic Fermi Contact Couplings
        Atom                 a.u.       MegaHertz       Gauss      10(-4) cm-1
     1  C(13)             -0.00000      -0.00000      -0.00000      -0.00000
     2  C(13)              0.00000       0.00000       0.00000       0.00000
     3  C(13)              0.00000       0.00000       0.00000       0.00000
     4  H(1)              -0.00000      -0.00000      -0.00000      -0.00000
     5  C(13)             -0.00000      -0.00000      -0.00000      -0.00000
     6  H(1)              -0.00000      -0.00000      -0.00000      -0.00000
 --------------------------------------------------------
       Center         ----  Spin Dipole Couplings  ----
                      3XX-RR        3YY-RR        3ZZ-RR
 --------------------------------------------------------
     1   Atom       -0.000000      0.000000     -0.000000
     2   Atom       -0.000000      0.000000      0.000000
     3   Atom        0.000000     -0.000000      0.000000
     4   Atom        0.000000     -0.000000      0.000000
     5   Atom        0.000000     -0.000000      0.000000
     6   Atom        0.000000     -0.000000      0.000000
 --------------------------------------------------------
                        XY            XZ            YZ
 --------------------------------------------------------
     1   Atom        0.000000     -0.000000      0.000000
     2   Atom        0.000000      0.000000     -0.000000
     3   Atom        0.000000      0.000000     -0.000000
     4   Atom       -0.000000      0.000000      0.000000
     5   Atom       -0.000000      0.000000     -0.000000
     6   Atom        0.000000     -0.000000      0.000000
 --------------------------------------------------------


 ---------------------------------------------------------------------------------
              Anisotropic Spin Dipole Couplings in Principal Axis System
 ---------------------------------------------------------------------------------

       Atom             a.u.   MegaHertz   Gauss  10(-4) cm-1        Axes

              Baa    -0.0000    -0.000    -0.000    -0.000  0.9911 -0.0885  0.0992
     1 C(13)  Bbb    -0.0000    -0.000    -0.000    -0.000 -0.0988  0.0083  0.9951
              Bcc     0.0000     0.000     0.000     0.000  0.0889  0.9960  0.0005
 
              Baa    -0.0000    -0.000    -0.000    -0.000  0.9498 -0.2524 -0.1849
     2 C(13)  Bbb     0.0000     0.000     0.000     0.000  0.2955  0.9178  0.2652
              Bcc     0.0000     0.000     0.000     0.000  0.1028 -0.3065  0.9463
 
              Baa    -0.0000    -0.000    -0.000    -0.000 -0.4361  0.8979  0.0604
     3 C(13)  Bbb     0.0000     0.000     0.000     0.000  0.8935  0.4240  0.1479
              Bcc     0.0000     0.000     0.000     0.000 -0.1072 -0.1185  0.9872
 
              Baa    -0.0000    -0.000    -0.000    -0.000  0.2669  0.9572 -0.1116
     4 H(1)   Bbb     0.0000     0.000     0.000     0.000  0.9547 -0.2784 -0.1054
              Bcc     0.0000     0.000     0.000     0.000  0.1319  0.0784  0.9882
 
              Baa    -0.0000    -0.000    -0.000    -0.000  0.0040  0.9942  0.1070
     5 C(13)  Bbb     0.0000     0.000     0.000     0.000 -0.0279 -0.1069  0.9939
              Bcc     0.0000     0.000     0.000     0.000  0.9996 -0.0069  0.0274
 
              Baa    -0.0000    -0.000    -0.000    -0.000 -0.3687  0.9273 -0.0646
     6 H(1)   Bbb     0.0000     0.000     0.000     0.000  0.0844  0.1026  0.9911
              Bcc     0.0000     0.000     0.000     0.000  0.9257  0.3600 -0.1161
 

 ---------------------------------------------------------------------------------

 1\1\GINC-NODE32\SP\UB3LYP\6-31+G(d)\C4H2\YANZ\12-Oct-2023\0\\# ub3lyp/
 6-31+g(d)\\tmpdir/M2_ref_1.gjf\\0,1\C,0,2.76086323,-0.64577722,-0.0554
 3502\C,0,2.73397309,0.74492017,-0.01998226\C,0,1.5691386,-1.37271489,-
 0.06897614\H,0,3.71236256,-1.16918432,-0.07323601\C,0,1.51456879,1.425
 95753,0.00431597\H,0,3.66448683,1.30480451,-0.00921086\\Version=ES64L-
 G16RevA.03\State=1-A\HF=-153.3128759\S2=0.\S2-1=0.\S2A=0.\RMSD=2.384e-
 09\Dipole=1.4637991,0.027857,-0.0059446\Quadrupole=1.009923,-0.1513661
 ,-0.8585569,0.0217751,-0.0068317,0.0166172\PG=C01 [X(C4H2)]\\@


 IF YOU BELIEVE CERTAIN WORDS, YOU BELIEVE THEIR HIDDEN ARGUMENTS.
 WHEN YOU BELIEVE SOMETHING IS RIGHT OR WRONG, TRUE OR FALSE, 
 YOU BELIEVE THE ASSUMPTIONS IN THE WORDS WHICH EXPRESS THE ARGUMENTS.
 SUCH ASSUMPTIONS ARE OFTEN FULL OF HOLES, BUT REMAIN MOST PRECIOUS 
 TO THE CONVINCED.

                 -- THE OPEN-ENDED PROOF FROM THE PANOPLIA PROPHETICA
                    CHILDREN OF DUNE BY FRANK HERBERT
 Job cpu time:       0 days  0 hours  0 minutes 29.5 seconds.
 Elapsed time:       0 days  0 hours  0 minutes 15.0 seconds.
 File lengths (MBytes):  RWF=     10 Int=      0 D2E=      0 Chk=      2 Scr=      1
 Normal termination of Gaussian 16 at Thu Oct 12 15:11:23 2023.
