 Entering Gaussian System, Link 0=g16
 Initial command:
 /share/apps/gaussian/g16/l1.exe "/tmp/58286.mgr/Gau-29762.inp" -scrdir="/tmp/58286.mgr/"
 Entering Link 1 = /share/apps/gaussian/g16/l1.exe PID=     29772.
  
 Copyright (c) 1988,1990,1992,1993,1995,1998,2003,2009,2016,
            Gaussian, Inc.  All Rights Reserved.
  
 This is part of the Gaussian(R) 16 program.  It is based on
 the Gaussian(R) 09 system (copyright 2009, Gaussian, Inc.),
 the Gaussian(R) 03 system (copyright 2003, Gaussian, Inc.),
 the Gaussian(R) 98 system (copyright 1998, Gaussian, Inc.),
 the Gaussian(R) 94 system (copyright 1995, Gaussian, Inc.),
 the Gaussian 92(TM) system (copyright 1992, Gaussian, Inc.),
 the Gaussian 90(TM) system (copyright 1990, Gaussian, Inc.),
 the Gaussian 88(TM) system (copyright 1988, Gaussian, Inc.),
 the Gaussian 86(TM) system (copyright 1986, Carnegie Mellon
 University), and the Gaussian 82(TM) system (copyright 1983,
 Carnegie Mellon University). Gaussian is a federally registered
 trademark of Gaussian, Inc.
  
 This software contains proprietary and confidential information,
 including trade secrets, belonging to Gaussian, Inc.
  
 This software is provided under written license and may be
 used, copied, transmitted, or stored only in accord with that
 written license.
  
 The following legend is applicable only to US Government
 contracts under FAR:
  
                    RESTRICTED RIGHTS LEGEND
  
 Use, reproduction and disclosure by the US Government is
 subject to restrictions as set forth in subparagraphs (a)
 and (c) of the Commercial Computer Software - Restricted
 Rights clause in FAR 52.227-19.
  
 Gaussian, Inc.
 340 Quinnipiac St., Bldg. 40, Wallingford CT 06492
  
  
 ---------------------------------------------------------------
 Warning -- This program may not be used in any manner that
 competes with the business of Gaussian, Inc. or will provide
 assistance to any competitor of Gaussian, Inc.  The licensee
 of this program is prohibited from giving any competitor of
 Gaussian, Inc. access to this program.  By using this program,
 the user acknowledges that Gaussian, Inc. is engaged in the
 business of creating and licensing software in the field of
 computational chemistry and represents and warrants to the
 licensee that it is not a competitor of Gaussian, Inc. and that
 it will not use this program in any manner prohibited above.
 ---------------------------------------------------------------
  

 Cite this work as:
 Gaussian 16, Revision A.03,
 M. J. Frisch, G. W. Trucks, H. B. Schlegel, G. E. Scuseria, 
 M. A. Robb, J. R. Cheeseman, G. Scalmani, V. Barone, 
 G. A. Petersson, H. Nakatsuji, X. Li, M. Caricato, A. V. Marenich, 
 J. Bloino, B. G. Janesko, R. Gomperts, B. Mennucci, H. P. Hratchian, 
 J. V. Ortiz, A. F. Izmaylov, J. L. Sonnenberg, D. Williams-Young, 
 F. Ding, F. Lipparini, F. Egidi, J. Goings, B. Peng, A. Petrone, 
 T. Henderson, D. Ranasinghe, V. G. Zakrzewski, J. Gao, N. Rega, 
 G. Zheng, W. Liang, M. Hada, M. Ehara, K. Toyota, R. Fukuda, 
 J. Hasegawa, M. Ishida, T. Nakajima, Y. Honda, O. Kitao, H. Nakai, 
 T. Vreven, K. Throssell, J. A. Montgomery, Jr., J. E. Peralta, 
 F. Ogliaro, M. J. Bearpark, J. J. Heyd, E. N. Brothers, K. N. Kudin, 
 V. N. Staroverov, T. A. Keith, R. Kobayashi, J. Normand, 
 K. Raghavachari, A. P. Rendell, J. C. Burant, S. S. Iyengar, 
 J. Tomasi, M. Cossi, J. M. Millam, M. Klene, C. Adamo, R. Cammi, 
 J. W. Ochterski, R. L. Martin, K. Morokuma, O. Farkas, 
 J. B. Foresman, and D. J. Fox, Gaussian, Inc., Wallingford CT, 2016.
 
 ******************************************
 Gaussian 16:  ES64L-G16RevA.03 25-Dec-2016
                12-Oct-2023 
 ******************************************
 %nprocshared=2
 Will use up to    2 processors via shared memory.
 %mem=2GB
 ------------------
 # ub3lyp/6-31+g(d)
 ------------------
 1/38=1,172=1/1;
 2/12=2,17=6,18=5,40=1/2;
 3/5=1,6=6,7=11,11=2,25=1,30=1,74=-5,116=2/1,2,3;
 4//1;
 5/5=2,38=5/2;
 6/7=2,8=2,9=2,10=2,28=1/1;
 99/5=1,9=1/99;
 --------------------
 tmpdir/M2_ref_15.gjf
 --------------------
 Symbolic Z-matrix:
 Charge =  0 Multiplicity = 1
 C                     0.33039   0.70664  -0.0169 
 C                     0.35803  -0.6951   -0.06228 
 C                    -1.0331   -1.31842  -0.02875 
 H                     1.1876    1.22734  -0.00154 
 H                    -0.68507   1.12345   0.01035 
 H                     1.23473  -1.18561  -0.06713 
 H                    -1.41478  -0.93071   0.93497 
 H                    -0.99836  -2.40914  -0.07674 
 H                    -1.63048  -0.85812  -0.82945 
 
                          Input orientation:                          
 ---------------------------------------------------------------------
 Center     Atomic      Atomic             Coordinates (Angstroms)
 Number     Number       Type             X           Y           Z
 ---------------------------------------------------------------------
      1          6           0        0.330395    0.706637   -0.016895
      2          6           0        0.358030   -0.695095   -0.062281
      3          6           0       -1.033097   -1.318418   -0.028751
      4          1           0        1.187602    1.227343   -0.001541
      5          1           0       -0.685075    1.123452    0.010351
      6          1           0        1.234735   -1.185615   -0.067128
      7          1           0       -1.414779   -0.930713    0.934974
      8          1           0       -0.998356   -2.409144   -0.076742
      9          1           0       -1.630484   -0.858124   -0.829448
 ---------------------------------------------------------------------
                    Distance matrix (angstroms):
                    1          2          3          4          5
     1  C    0.000000
     2  C    1.402740   0.000000
     3  C    2.441332   1.524759   0.000000
     4  H    1.003082   2.094672   3.378334   0.000000
     5  H    1.098024   2.097727   2.466856   1.875594   0.000000
     6  H    2.097849   1.004611   2.272041   2.414309   3.003908
     7  H    2.575384   2.047654   1.106690   3.508084   2.367908
     8  H    3.387810   2.185854   1.092334   4.243596   3.547530
     9  H    2.636999   2.137595   1.099935   3.602251   2.350682
                    6          7          8          9
     6  H    0.000000
     7  H    2.844135   0.000000
     8  H    2.546333   1.839222   0.000000
     9  H    2.982928   1.779040   1.836250   0.000000
 Stoichiometry    C3H6
 Framework group  C1[X(C3H6)]
 Deg. of freedom    21
 Full point group                 C1      NOp   1
 Largest Abelian subgroup         C1      NOp   1
 Largest concise Abelian subgroup C1      NOp   1
                         Standard orientation:                         
 ---------------------------------------------------------------------
 Center     Atomic      Atomic             Coordinates (Angstroms)
 Number     Number       Type             X           Y           Z
 ---------------------------------------------------------------------
      1          6           0       -1.240194   -0.264237   -0.002023
      2          6           0       -0.120360    0.580408   -0.017009
      3          6           0        1.199766   -0.182415   -0.000906
      4          1           0       -2.164507    0.124714    0.021151
      5          1           0       -0.983003   -1.331707   -0.006015
      6          1           0       -0.236609    1.577960    0.007880
      7          1           0        1.105123   -0.747831    0.945725
      8          1           0        2.063436    0.485933   -0.024944
      9          1           0        1.180293   -0.911607   -0.824165
 ---------------------------------------------------------------------
 Rotational constants (GHZ):          39.4679734          10.0769541           8.4544518
 Standard basis: 6-31+G(d) (6D, 7F)
 There are    69 symmetry adapted cartesian basis functions of A   symmetry.
 There are    69 symmetry adapted basis functions of A   symmetry.
    69 basis functions,   120 primitive gaussians,    69 cartesian basis functions
    12 alpha electrons       12 beta electrons
       nuclear repulsion energy        70.9299076253 Hartrees.
 NAtoms=    9 NActive=    9 NUniq=    9 SFac= 1.00D+00 NAtFMM=   60 NAOKFM=F Big=F
 Integral buffers will be    131072 words long.
 Raffenetti 2 integral format.
 Two-electron integral symmetry is turned on.
 One-electron integrals computed using PRISM.
 NBasis=    69 RedAO= T EigKep=  2.22D-04  NBF=    69
 NBsUse=    69 1.00D-06 EigRej= -1.00D+00 NBFU=    69
 ExpMin= 4.38D-02 ExpMax= 3.05D+03 ExpMxC= 4.57D+02 IAcc=3 IRadAn=         5 AccDes= 0.00D+00
 Harris functional with IExCor=  402 and IRadAn=       5 diagonalized for initial guess.
 HarFok:  IExCor=  402 AccDes= 0.00D+00 IRadAn=         5 IDoV= 1 UseB2=F ITyADJ=14
 ICtDFT=  3500011 ScaDFX=  1.000000  1.000000  1.000000  1.000000
 FoFCou: FMM=F IPFlag=           0 FMFlag=      100000 FMFlg1=           0
         NFxFlg=           0 DoJE=T BraDBF=F KetDBF=T FulRan=T
         wScrn=  0.000000 ICntrl=       500 IOpCl=  0 I1Cent=   200000004 NGrid=           0
         NMat0=    1 NMatS0=      1 NMatT0=    0 NMatD0=    1 NMtDS0=    0 NMtDT0=    0
 Petite list used in FoFCou.
 Initial guess <Sx>= 0.0000 <Sy>= 0.0000 <Sz>= 0.0000 <S**2>= 0.0000 S= 0.0000
 Keep R1 and R2 ints in memory in canonical form, NReq=7619695.
 Requested convergence on RMS density matrix=1.00D-08 within 128 cycles.
 Requested convergence on MAX density matrix=1.00D-06.
 Requested convergence on             energy=1.00D-06.
 No special actions if energy rises.
 SCF Done:  E(UB3LYP) =  -117.884031020     A.U. after   11 cycles
            NFock= 11  Conv=0.24D-08     -V/T= 2.0098
 <Sx>= 0.0000 <Sy>= 0.0000 <Sz>= 0.0000 <S**2>=-0.0000 S=-0.0000
 <L.S>= 0.000000000000E+00
 Annihilation of the first spin contaminant:
 S**2 before annihilation    -0.0000,   after     0.0000

 **********************************************************************

            Population analysis using the SCF density.

 **********************************************************************

 Orbital symmetries:
 Alpha Orbitals:
       Occupied  (A) (A) (A) (A) (A) (A) (A) (A) (A) (A) (A) (A)
       Virtual   (A) (A) (A) (A) (A) (A) (A) (A) (A) (A) (A) (A)
                 (A) (A) (A) (A) (A) (A) (A) (A) (A) (A) (A) (A)
                 (A) (A) (A) (A) (A) (A) (A) (A) (A) (A) (A) (A)
                 (A) (A) (A) (A) (A) (A) (A) (A) (A) (A) (A) (A)
                 (A) (A) (A) (A) (A) (A) (A) (A) (A)
 Beta  Orbitals:
       Occupied  (A) (A) (A) (A) (A) (A) (A) (A) (A) (A) (A) (A)
       Virtual   (A) (A) (A) (A) (A) (A) (A) (A) (A) (A) (A) (A)
                 (A) (A) (A) (A) (A) (A) (A) (A) (A) (A) (A) (A)
                 (A) (A) (A) (A) (A) (A) (A) (A) (A) (A) (A) (A)
                 (A) (A) (A) (A) (A) (A) (A) (A) (A) (A) (A) (A)
                 (A) (A) (A) (A) (A) (A) (A) (A) (A)
 The electronic state is 1-A.
 Alpha  occ. eigenvalues --  -10.19579 -10.18833 -10.17888  -0.78761  -0.67759
 Alpha  occ. eigenvalues --   -0.57327  -0.48150  -0.41748  -0.41149  -0.37658
 Alpha  occ. eigenvalues --   -0.36052  -0.24362
 Alpha virt. eigenvalues --   -0.01606   0.01686   0.03259   0.03550   0.05989
 Alpha virt. eigenvalues --    0.06623   0.07733   0.09326   0.09567   0.11695
 Alpha virt. eigenvalues --    0.12576   0.12855   0.16455   0.20026   0.21369
 Alpha virt. eigenvalues --    0.22817   0.26173   0.28103   0.31076   0.33383
 Alpha virt. eigenvalues --    0.36468   0.60556   0.63379   0.66749   0.68598
 Alpha virt. eigenvalues --    0.70293   0.73194   0.75123   0.77743   0.88748
 Alpha virt. eigenvalues --    0.92499   0.95521   0.99502   1.04472   1.06920
 Alpha virt. eigenvalues --    1.08580   1.15614   1.27198   1.34085   1.41646
 Alpha virt. eigenvalues --    1.46228   1.69071   1.80340   1.88884   2.02315
 Alpha virt. eigenvalues --    2.10798   2.16301   2.22027   2.23728   2.25686
 Alpha virt. eigenvalues --    2.37432   2.57077   2.73622   2.76945   4.18473
 Alpha virt. eigenvalues --    4.22699   4.42577
  Beta  occ. eigenvalues --  -10.19579 -10.18833 -10.17888  -0.78761  -0.67759
  Beta  occ. eigenvalues --   -0.57327  -0.48150  -0.41748  -0.41149  -0.37658
  Beta  occ. eigenvalues --   -0.36052  -0.24362
  Beta virt. eigenvalues --   -0.01606   0.01686   0.03259   0.03550   0.05989
  Beta virt. eigenvalues --    0.06623   0.07733   0.09326   0.09567   0.11695
  Beta virt. eigenvalues --    0.12576   0.12855   0.16455   0.20026   0.21369
  Beta virt. eigenvalues --    0.22817   0.26173   0.28103   0.31076   0.33383
  Beta virt. eigenvalues --    0.36468   0.60556   0.63379   0.66749   0.68598
  Beta virt. eigenvalues --    0.70293   0.73194   0.75123   0.77743   0.88748
  Beta virt. eigenvalues --    0.92499   0.95521   0.99502   1.04472   1.06920
  Beta virt. eigenvalues --    1.08580   1.15614   1.27198   1.34085   1.41646
  Beta virt. eigenvalues --    1.46228   1.69071   1.80340   1.88884   2.02315
  Beta virt. eigenvalues --    2.10798   2.16301   2.22027   2.23728   2.25686
  Beta virt. eigenvalues --    2.37432   2.57077   2.73622   2.76945   4.18473
  Beta virt. eigenvalues --    4.22699   4.42577
          Condensed to atoms (all electrons):
               1          2          3          4          5          6
     1  C    5.146624   0.592652  -0.034691   0.397619   0.406274  -0.016402
     2  C    0.592652   5.126346   0.130834  -0.045724  -0.084057   0.353232
     3  C   -0.034691   0.130834   5.535434   0.005699   0.003047  -0.034765
     4  H    0.397619  -0.045724   0.005699   0.495912  -0.030522  -0.005737
     5  H    0.406274  -0.084057   0.003047  -0.030522   0.522519   0.004920
     6  H   -0.016402   0.353232  -0.034765  -0.005737   0.004920   0.515366
     7  H   -0.024375  -0.074070   0.422902   0.000052   0.001040   0.003024
     8  H    0.012818  -0.057827   0.393707  -0.000195   0.000420  -0.002893
     9  H   -0.012878  -0.057191   0.403530   0.000120   0.001271   0.002613
               7          8          9
     1  C   -0.024375   0.012818  -0.012878
     2  C   -0.074070  -0.057827  -0.057191
     3  C    0.422902   0.393707   0.403530
     4  H    0.000052  -0.000195   0.000120
     5  H    0.001040   0.000420   0.001271
     6  H    0.003024  -0.002893   0.002613
     7  H    0.504271  -0.021618  -0.031939
     8  H   -0.021618   0.498073  -0.021347
     9  H   -0.031939  -0.021347   0.496370
          Atomic-Atomic Spin Densities.
               1          2          3          4          5          6
     1  C   -0.000000   0.000000  -0.000000  -0.000000  -0.000000  -0.000000
     2  C    0.000000  -0.000000   0.000000   0.000000   0.000000   0.000000
     3  C   -0.000000   0.000000  -0.000000   0.000000  -0.000000  -0.000000
     4  H   -0.000000   0.000000   0.000000   0.000000   0.000000   0.000000
     5  H   -0.000000   0.000000  -0.000000   0.000000  -0.000000  -0.000000
     6  H   -0.000000   0.000000  -0.000000   0.000000  -0.000000  -0.000000
     7  H   -0.000000   0.000000  -0.000000   0.000000  -0.000000   0.000000
     8  H    0.000000  -0.000000  -0.000000  -0.000000  -0.000000   0.000000
     9  H   -0.000000   0.000000  -0.000000   0.000000   0.000000  -0.000000
               7          8          9
     1  C   -0.000000   0.000000  -0.000000
     2  C    0.000000  -0.000000   0.000000
     3  C   -0.000000  -0.000000  -0.000000
     4  H    0.000000  -0.000000   0.000000
     5  H   -0.000000  -0.000000   0.000000
     6  H    0.000000   0.000000  -0.000000
     7  H   -0.000000   0.000000  -0.000000
     8  H    0.000000  -0.000000   0.000000
     9  H   -0.000000   0.000000   0.000000
 Mulliken charges and spin densities:
               1          2
     1  C   -0.467640  -0.000000
     2  C    0.115804   0.000000
     3  C   -0.825698  -0.000000
     4  H    0.182777   0.000000
     5  H    0.175087  -0.000000
     6  H    0.180644  -0.000000
     7  H    0.220714  -0.000000
     8  H    0.198862  -0.000000
     9  H    0.219451   0.000000
 Sum of Mulliken charges =  -0.00000  -0.00000
 Mulliken charges and spin densities with hydrogens summed into heavy atoms:
               1          2
     1  C   -0.109776  -0.000000
     2  C    0.296448   0.000000
     3  C   -0.186671  -0.000000
 Electronic spatial extent (au):  <R**2>=            190.9247
 Charge=             -0.0000 electrons
 Dipole moment (field-independent basis, Debye):
    X=              0.3820    Y=              0.0755    Z=              0.0762  Tot=              0.3968
 Quadrupole moment (field-independent basis, Debye-Ang):
   XX=            -20.2273   YY=            -18.9346   ZZ=            -22.3722
   XY=              0.0604   XZ=             -0.1722   YZ=              0.1042
 Traceless Quadrupole moment (field-independent basis, Debye-Ang):
   XX=              0.2841   YY=              1.5768   ZZ=             -1.8608
   XY=              0.0604   XZ=             -0.1722   YZ=              0.1042
 Octapole moment (field-independent basis, Debye-Ang**2):
  XXX=             -1.9470  YYY=              1.2161  ZZZ=              0.3524  XYY=              0.0033
  XXY=              2.1780  XXZ=             -0.1099  XZZ=              2.3681  YZZ=             -0.9421
  YYZ=             -0.0877  XYZ=              0.1029
 Hexadecapole moment (field-independent basis, Debye-Ang**3):
 XXXX=           -172.4609 YYYY=            -59.0492 ZZZZ=            -36.5483 XXXY=              0.7906
 XXXZ=             -1.0235 YYYX=              0.0680 YYYZ=              0.4562 ZZZX=             -0.2002
 ZZZY=              0.0589 XXYY=            -40.1982 XXZZ=            -38.8225 YYZZ=            -16.6335
 XXYZ=              0.2657 YYXZ=             -0.3591 ZZXY=             -0.6100
 N-N= 7.092990762529D+01 E-N=-4.138337277906D+02  KE= 1.167453053708D+02
                          Isotropic Fermi Contact Couplings
        Atom                 a.u.       MegaHertz       Gauss      10(-4) cm-1
     1  C(13)             -0.00000      -0.00000      -0.00000      -0.00000
     2  C(13)             -0.00000      -0.00000      -0.00000      -0.00000
     3  C(13)             -0.00000      -0.00000      -0.00000      -0.00000
     4  H(1)               0.00000       0.00000       0.00000       0.00000
     5  H(1)               0.00000       0.00000       0.00000       0.00000
     6  H(1)               0.00000       0.00000       0.00000       0.00000
     7  H(1)               0.00000       0.00000       0.00000       0.00000
     8  H(1)              -0.00000      -0.00000      -0.00000      -0.00000
     9  H(1)               0.00000       0.00000       0.00000       0.00000
 --------------------------------------------------------
       Center         ----  Spin Dipole Couplings  ----
                      3XX-RR        3YY-RR        3ZZ-RR
 --------------------------------------------------------
     1   Atom        0.000000      0.000000      0.000000
     2   Atom        0.000000      0.000000      0.000000
     3   Atom        0.000000      0.000000      0.000000
     4   Atom        0.000000      0.000000      0.000000
     5   Atom        0.000000      0.000000      0.000000
     6   Atom        0.000000      0.000000      0.000000
     7   Atom        0.000000      0.000000      0.000000
     8   Atom        0.000000      0.000000      0.000000
     9   Atom        0.000000      0.000000      0.000000
 --------------------------------------------------------
                        XY            XZ            YZ
 --------------------------------------------------------
     1   Atom        0.000000      0.000000      0.000000
     2   Atom        0.000000      0.000000      0.000000
     3   Atom        0.000000      0.000000      0.000000
     4   Atom        0.000000      0.000000      0.000000
     5   Atom        0.000000      0.000000      0.000000
     6   Atom        0.000000      0.000000      0.000000
     7   Atom        0.000000      0.000000      0.000000
     8   Atom        0.000000      0.000000      0.000000
     9   Atom        0.000000      0.000000      0.000000
 --------------------------------------------------------


 ---------------------------------------------------------------------------------
              Anisotropic Spin Dipole Couplings in Principal Axis System
 ---------------------------------------------------------------------------------

       Atom             a.u.   MegaHertz   Gauss  10(-4) cm-1        Axes

              Baa     0.0000     0.000     0.000     0.000  1.0000  0.0000  0.0000
     1 C(13)  Bbb     0.0000     0.000     0.000     0.000 -0.0000  1.0000  0.0000
              Bcc     0.0000     0.000     0.000     0.000  0.0000  0.0000  1.0000
 
              Baa     0.0000     0.000     0.000     0.000  1.0000  0.0000  0.0000
     2 C(13)  Bbb     0.0000     0.000     0.000     0.000 -0.0000  1.0000  0.0000
              Bcc     0.0000     0.000     0.000     0.000  0.0000  0.0000  1.0000
 
              Baa     0.0000     0.000     0.000     0.000  1.0000  0.0000  0.0000
     3 C(13)  Bbb     0.0000     0.000     0.000     0.000 -0.0000  1.0000  0.0000
              Bcc     0.0000     0.000     0.000     0.000  0.0000  0.0000  1.0000
 
              Baa     0.0000     0.000     0.000     0.000  1.0000  0.0000  0.0000
     4 H(1)   Bbb     0.0000     0.000     0.000     0.000 -0.0000  1.0000  0.0000
              Bcc     0.0000     0.000     0.000     0.000  0.0000  0.0000  1.0000
 
              Baa     0.0000     0.000     0.000     0.000  1.0000  0.0000  0.0000
     5 H(1)   Bbb     0.0000     0.000     0.000     0.000 -0.0000  1.0000  0.0000
              Bcc     0.0000     0.000     0.000     0.000  0.0000  0.0000  1.0000
 
              Baa     0.0000     0.000     0.000     0.000  1.0000  0.0000  0.0000
     6 H(1)   Bbb     0.0000     0.000     0.000     0.000 -0.0000  1.0000  0.0000
              Bcc     0.0000     0.000     0.000     0.000  0.0000  0.0000  1.0000
 
              Baa     0.0000     0.000     0.000     0.000  1.0000  0.0000  0.0000
     7 H(1)   Bbb     0.0000     0.000     0.000     0.000 -0.0000  1.0000  0.0000
              Bcc     0.0000     0.000     0.000     0.000  0.0000  0.0000  1.0000
 
              Baa     0.0000     0.000     0.000     0.000  1.0000  0.0000  0.0000
     8 H(1)   Bbb     0.0000     0.000     0.000     0.000 -0.0000  1.0000  0.0000
              Bcc     0.0000     0.000     0.000     0.000  0.0000  0.0000  1.0000
 
              Baa     0.0000     0.000     0.000     0.000  1.0000  0.0000  0.0000
     9 H(1)   Bbb     0.0000     0.000     0.000     0.000 -0.0000  1.0000  0.0000
              Bcc     0.0000     0.000     0.000     0.000  0.0000  0.0000  1.0000
 

 ---------------------------------------------------------------------------------

 1\1\GINC-NODE32\SP\UB3LYP\6-31+G(d)\C3H6\YANZ\12-Oct-2023\0\\# ub3lyp/
 6-31+g(d)\\tmpdir/M2_ref_15.gjf\\0,1\C,0,0.33039499,0.70663737,-0.0168
 9504\C,0,0.35803021,-0.69509548,-0.06228099\C,0,-1.0330974,-1.3184176,
 -0.02875126\H,0,1.18760183,1.22734316,-0.00154069\H,0,-0.68507474,1.12
 345238,0.01035115\H,0,1.23473462,-1.18561468,-0.06712752\H,0,-1.414778
 93,-0.93071278,0.93497418\H,0,-0.99835638,-2.40914399,-0.07674181\H,0,
 -1.63048379,-0.85812368,-0.82944811\\Version=ES64L-G16RevA.03\State=1-
 A\HF=-117.884031\S2=0.\S2-1=0.\S2A=0.\RMSD=2.379e-09\Dipole=-0.0633705
 ,-0.1398132,0.0284156\Quadrupole=0.8044855,0.580203,-1.3846885,-0.4708
 537,0.0796329,0.110488\PG=C01 [X(C3H6)]\\@


  DISAPPOINTMENT IS THE NURSE OF WISDOM.               
                              SIR BOYLE ROCHE                 
 Job cpu time:       0 days  0 hours  0 minutes 31.1 seconds.
 Elapsed time:       0 days  0 hours  0 minutes 16.0 seconds.
 File lengths (MBytes):  RWF=      6 Int=      0 D2E=      0 Chk=      1 Scr=      1
 Normal termination of Gaussian 16 at Thu Oct 12 15:11:16 2023.
