 Entering Gaussian System, Link 0=g16
 Initial command:
 /share/apps/gaussian/g16/l1.exe "/tmp/58286.mgr/Gau-30367.inp" -scrdir="/tmp/58286.mgr/"
 Entering Link 1 = /share/apps/gaussian/g16/l1.exe PID=     30368.
  
 Copyright (c) 1988,1990,1992,1993,1995,1998,2003,2009,2016,
            Gaussian, Inc.  All Rights Reserved.
  
 This is part of the Gaussian(R) 16 program.  It is based on
 the Gaussian(R) 09 system (copyright 2009, Gaussian, Inc.),
 the Gaussian(R) 03 system (copyright 2003, Gaussian, Inc.),
 the Gaussian(R) 98 system (copyright 1998, Gaussian, Inc.),
 the Gaussian(R) 94 system (copyright 1995, Gaussian, Inc.),
 the Gaussian 92(TM) system (copyright 1992, Gaussian, Inc.),
 the Gaussian 90(TM) system (copyright 1990, Gaussian, Inc.),
 the Gaussian 88(TM) system (copyright 1988, Gaussian, Inc.),
 the Gaussian 86(TM) system (copyright 1986, Carnegie Mellon
 University), and the Gaussian 82(TM) system (copyright 1983,
 Carnegie Mellon University). Gaussian is a federally registered
 trademark of Gaussian, Inc.
  
 This software contains proprietary and confidential information,
 including trade secrets, belonging to Gaussian, Inc.
  
 This software is provided under written license and may be
 used, copied, transmitted, or stored only in accord with that
 written license.
  
 The following legend is applicable only to US Government
 contracts under FAR:
  
                    RESTRICTED RIGHTS LEGEND
  
 Use, reproduction and disclosure by the US Government is
 subject to restrictions as set forth in subparagraphs (a)
 and (c) of the Commercial Computer Software - Restricted
 Rights clause in FAR 52.227-19.
  
 Gaussian, Inc.
 340 Quinnipiac St., Bldg. 40, Wallingford CT 06492
  
  
 ---------------------------------------------------------------
 Warning -- This program may not be used in any manner that
 competes with the business of Gaussian, Inc. or will provide
 assistance to any competitor of Gaussian, Inc.  The licensee
 of this program is prohibited from giving any competitor of
 Gaussian, Inc. access to this program.  By using this program,
 the user acknowledges that Gaussian, Inc. is engaged in the
 business of creating and licensing software in the field of
 computational chemistry and represents and warrants to the
 licensee that it is not a competitor of Gaussian, Inc. and that
 it will not use this program in any manner prohibited above.
 ---------------------------------------------------------------
  

 Cite this work as:
 Gaussian 16, Revision A.03,
 M. J. Frisch, G. W. Trucks, H. B. Schlegel, G. E. Scuseria, 
 M. A. Robb, J. R. Cheeseman, G. Scalmani, V. Barone, 
 G. A. Petersson, H. Nakatsuji, X. Li, M. Caricato, A. V. Marenich, 
 J. Bloino, B. G. Janesko, R. Gomperts, B. Mennucci, H. P. Hratchian, 
 J. V. Ortiz, A. F. Izmaylov, J. L. Sonnenberg, D. Williams-Young, 
 F. Ding, F. Lipparini, F. Egidi, J. Goings, B. Peng, A. Petrone, 
 T. Henderson, D. Ranasinghe, V. G. Zakrzewski, J. Gao, N. Rega, 
 G. Zheng, W. Liang, M. Hada, M. Ehara, K. Toyota, R. Fukuda, 
 J. Hasegawa, M. Ishida, T. Nakajima, Y. Honda, O. Kitao, H. Nakai, 
 T. Vreven, K. Throssell, J. A. Montgomery, Jr., J. E. Peralta, 
 F. Ogliaro, M. J. Bearpark, J. J. Heyd, E. N. Brothers, K. N. Kudin, 
 V. N. Staroverov, T. A. Keith, R. Kobayashi, J. Normand, 
 K. Raghavachari, A. P. Rendell, J. C. Burant, S. S. Iyengar, 
 J. Tomasi, M. Cossi, J. M. Millam, M. Klene, C. Adamo, R. Cammi, 
 J. W. Ochterski, R. L. Martin, K. Morokuma, O. Farkas, 
 J. B. Foresman, and D. J. Fox, Gaussian, Inc., Wallingford CT, 2016.
 
 ******************************************
 Gaussian 16:  ES64L-G16RevA.03 25-Dec-2016
                12-Oct-2023 
 ******************************************
 %nprocshared=2
 Will use up to    2 processors via shared memory.
 %mem=2GB
 ------------------
 # ub3lyp/6-31+g(d)
 ------------------
 1/38=1,172=1/1;
 2/12=2,17=6,18=5,40=1/2;
 3/5=1,6=6,7=11,11=2,25=1,30=1,74=-5,116=2/1,2,3;
 4//1;
 5/5=2,38=5/2;
 6/7=2,8=2,9=2,10=2,28=1/1;
 99/5=1,9=1/99;
 --------------------
 tmpdir/M2_ref_34.gjf
 --------------------
 Symbolic Z-matrix:
 Charge =  0 Multiplicity = 1
 C                     0.35803  -0.6951   -0.06228 
 C                    -1.0331   -1.31842  -0.02875 
 H                    -0.99836  -2.40914  -0.07674 
 H                     1.23473  -1.18561  -0.06713 
 O                     0.33367   0.54069  -0.02227 
 H                    -1.41478  -0.93071   0.93497 
 H                    -1.63048  -0.85812  -0.82945 
 
                          Input orientation:                          
 ---------------------------------------------------------------------
 Center     Atomic      Atomic             Coordinates (Angstroms)
 Number     Number       Type             X           Y           Z
 ---------------------------------------------------------------------
      1          6           0        0.358030   -0.695095   -0.062281
      2          6           0       -1.033097   -1.318418   -0.028751
      3          1           0       -0.998356   -2.409144   -0.076742
      4          1           0        1.234735   -1.185615   -0.067128
      5          8           0        0.333667    0.540695   -0.022268
      6          1           0       -1.414779   -0.930713    0.934974
      7          1           0       -1.630484   -0.858124   -0.829448
 ---------------------------------------------------------------------
                    Distance matrix (angstroms):
                    1          2          3          4          5
     1  C    0.000000
     2  C    1.524759   0.000000
     3  H    2.185854   1.092334   0.000000
     4  H    1.004611   2.272041   2.546333   0.000000
     5  O    1.236678   2.307463   3.237098   1.947840   0.000000
     6  H    2.047654   1.106690   1.839222   2.844135   2.477582
     7  H    2.137595   1.099935   1.836250   2.982928   2.542856
                    6          7
     6  H    0.000000
     7  H    1.779040   0.000000
 Stoichiometry    C2H4O
 Framework group  C1[X(C2H4O)]
 Deg. of freedom    15
 Full point group                 C1      NOp   1
 Largest Abelian subgroup         C1      NOp   1
 Largest concise Abelian subgroup C1      NOp   1
                         Standard orientation:                         
 ---------------------------------------------------------------------
 Center     Atomic      Atomic             Coordinates (Angstroms)
 Number     Number       Type             X           Y           Z
 ---------------------------------------------------------------------
      1          6           0       -0.236663    0.500171   -0.014854
      2          6           0        1.144692   -0.145272   -0.002493
      3          1           0        1.947070    0.595481   -0.028350
      4          1           0       -0.438939    1.483871    0.010865
      5          8           0       -1.155577   -0.327317    0.000448
      6          1           0        1.101875   -0.717067    0.944069
      7          1           0        1.186436   -0.873144   -0.826093
 ---------------------------------------------------------------------
 Rotational constants (GHZ):          48.7309143          11.0525149           9.5502785
 Standard basis: 6-31+G(d) (6D, 7F)
 There are    65 symmetry adapted cartesian basis functions of A   symmetry.
 There are    65 symmetry adapted basis functions of A   symmetry.
    65 basis functions,   112 primitive gaussians,    65 cartesian basis functions
    12 alpha electrons       12 beta electrons
       nuclear repulsion energy        70.0493009375 Hartrees.
 NAtoms=    7 NActive=    7 NUniq=    7 SFac= 1.00D+00 NAtFMM=   60 NAOKFM=F Big=F
 Integral buffers will be    131072 words long.
 Raffenetti 2 integral format.
 Two-electron integral symmetry is turned on.
 One-electron integrals computed using PRISM.
 NBasis=    65 RedAO= T EigKep=  3.41D-04  NBF=    65
 NBsUse=    65 1.00D-06 EigRej= -1.00D+00 NBFU=    65
 ExpMin= 4.38D-02 ExpMax= 5.48D+03 ExpMxC= 8.25D+02 IAcc=3 IRadAn=         5 AccDes= 0.00D+00
 Harris functional with IExCor=  402 and IRadAn=       5 diagonalized for initial guess.
 HarFok:  IExCor=  402 AccDes= 0.00D+00 IRadAn=         5 IDoV= 1 UseB2=F ITyADJ=14
 ICtDFT=  3500011 ScaDFX=  1.000000  1.000000  1.000000  1.000000
 FoFCou: FMM=F IPFlag=           0 FMFlag=      100000 FMFlg1=           0
         NFxFlg=           0 DoJE=T BraDBF=F KetDBF=T FulRan=T
         wScrn=  0.000000 ICntrl=       500 IOpCl=  0 I1Cent=   200000004 NGrid=           0
         NMat0=    1 NMatS0=      1 NMatT0=    0 NMatD0=    1 NMtDS0=    0 NMtDT0=    0
 Petite list used in FoFCou.
 Initial guess <Sx>= 0.0000 <Sy>= 0.0000 <Sz>= 0.0000 <S**2>= 0.0000 S= 0.0000
 Keep R1 and R2 ints in memory in canonical form, NReq=6379691.
 Requested convergence on RMS density matrix=1.00D-08 within 128 cycles.
 Requested convergence on MAX density matrix=1.00D-06.
 Requested convergence on             energy=1.00D-06.
 No special actions if energy rises.
 SCF Done:  E(UB3LYP) =  -153.822737753     A.U. after   11 cycles
            NFock= 11  Conv=0.22D-08     -V/T= 2.0090
 <Sx>= 0.0000 <Sy>= 0.0000 <Sz>= 0.0000 <S**2>=-0.0000 S=-0.0000
 <L.S>= 0.000000000000E+00
 Annihilation of the first spin contaminant:
 S**2 before annihilation    -0.0000,   after     0.0000

 **********************************************************************

            Population analysis using the SCF density.

 **********************************************************************

 Orbital symmetries:
 Alpha Orbitals:
       Occupied  (A) (A) (A) (A) (A) (A) (A) (A) (A) (A) (A) (A)
       Virtual   (A) (A) (A) (A) (A) (A) (A) (A) (A) (A) (A) (A)
                 (A) (A) (A) (A) (A) (A) (A) (A) (A) (A) (A) (A)
                 (A) (A) (A) (A) (A) (A) (A) (A) (A) (A) (A) (A)
                 (A) (A) (A) (A) (A) (A) (A) (A) (A) (A) (A) (A)
                 (A) (A) (A) (A) (A)
 Beta  Orbitals:
       Occupied  (A) (A) (A) (A) (A) (A) (A) (A) (A) (A) (A) (A)
       Virtual   (A) (A) (A) (A) (A) (A) (A) (A) (A) (A) (A) (A)
                 (A) (A) (A) (A) (A) (A) (A) (A) (A) (A) (A) (A)
                 (A) (A) (A) (A) (A) (A) (A) (A) (A) (A) (A) (A)
                 (A) (A) (A) (A) (A) (A) (A) (A) (A) (A) (A) (A)
                 (A) (A) (A) (A) (A)
 The electronic state is 1-A.
 Alpha  occ. eigenvalues --  -19.15967 -10.28534 -10.20477  -1.04656  -0.75220
 Alpha  occ. eigenvalues --   -0.61802  -0.48631  -0.45115  -0.43223  -0.41361
 Alpha  occ. eigenvalues --   -0.36005  -0.26505
 Alpha virt. eigenvalues --   -0.05139   0.01060   0.02624   0.04780   0.04937
 Alpha virt. eigenvalues --    0.07233   0.07768   0.09372   0.14112   0.16949
 Alpha virt. eigenvalues --    0.17227   0.20227   0.23440   0.25215   0.26039
 Alpha virt. eigenvalues --    0.28387   0.29740   0.32939   0.37725   0.63352
 Alpha virt. eigenvalues --    0.64282   0.66825   0.67840   0.71799   0.76052
 Alpha virt. eigenvalues --    0.90562   0.95152   1.00951   1.05360   1.07436
 Alpha virt. eigenvalues --    1.16492   1.20152   1.23750   1.31283   1.38188
 Alpha virt. eigenvalues --    1.50239   1.55468   1.71367   1.79862   1.80977
 Alpha virt. eigenvalues --    1.90978   2.07732   2.16208   2.20003   2.23908
 Alpha virt. eigenvalues --    2.30265   2.54314   2.60188   2.82212   2.98054
 Alpha virt. eigenvalues --    4.09755   4.16714   4.38833
  Beta  occ. eigenvalues --  -19.15967 -10.28534 -10.20477  -1.04656  -0.75220
  Beta  occ. eigenvalues --   -0.61802  -0.48631  -0.45115  -0.43223  -0.41361
  Beta  occ. eigenvalues --   -0.36005  -0.26505
  Beta virt. eigenvalues --   -0.05139   0.01060   0.02624   0.04780   0.04937
  Beta virt. eigenvalues --    0.07233   0.07768   0.09372   0.14112   0.16949
  Beta virt. eigenvalues --    0.17227   0.20227   0.23440   0.25215   0.26039
  Beta virt. eigenvalues --    0.28387   0.29740   0.32939   0.37725   0.63352
  Beta virt. eigenvalues --    0.64282   0.66825   0.67840   0.71799   0.76052
  Beta virt. eigenvalues --    0.90562   0.95152   1.00951   1.05360   1.07436
  Beta virt. eigenvalues --    1.16492   1.20152   1.23750   1.31283   1.38188
  Beta virt. eigenvalues --    1.50239   1.55468   1.71367   1.79862   1.80977
  Beta virt. eigenvalues --    1.90978   2.07732   2.16208   2.20003   2.23908
  Beta virt. eigenvalues --    2.30265   2.54314   2.60188   2.82212   2.98054
  Beta virt. eigenvalues --    4.09755   4.16714   4.38833
          Condensed to atoms (all electrons):
               1          2          3          4          5          6
     1  C    4.880116   0.167282  -0.040177   0.383882   0.451918  -0.036693
     2  C    0.167282   5.653057   0.359421  -0.104949  -0.149607   0.387437
     3  H   -0.040177   0.359421   0.515858   0.004617   0.009900  -0.023466
     4  H    0.383882  -0.104949   0.004617   0.598716  -0.064687   0.002581
     5  O    0.451918  -0.149607   0.009900  -0.064687   8.153444  -0.013994
     6  H   -0.036693   0.387437  -0.023466   0.002581  -0.013994   0.467712
     7  H   -0.035400   0.390823  -0.023005   0.002157  -0.008895  -0.020555
               7
     1  C   -0.035400
     2  C    0.390823
     3  H   -0.023005
     4  H    0.002157
     5  O   -0.008895
     6  H   -0.020555
     7  H    0.453918
          Atomic-Atomic Spin Densities.
               1          2          3          4          5          6
     1  C    0.000000  -0.000000   0.000000   0.000000  -0.000000  -0.000000
     2  C   -0.000000   0.000000  -0.000000  -0.000000   0.000000   0.000000
     3  H    0.000000  -0.000000   0.000000   0.000000   0.000000  -0.000000
     4  H    0.000000  -0.000000   0.000000  -0.000000  -0.000000   0.000000
     5  O   -0.000000   0.000000   0.000000  -0.000000  -0.000000   0.000000
     6  H   -0.000000   0.000000  -0.000000   0.000000   0.000000  -0.000000
     7  H   -0.000000   0.000000   0.000000   0.000000   0.000000  -0.000000
               7
     1  C   -0.000000
     2  C    0.000000
     3  H    0.000000
     4  H    0.000000
     5  O    0.000000
     6  H   -0.000000
     7  H    0.000000
 Mulliken charges and spin densities:
               1          2
     1  C    0.229072  -0.000000
     2  C   -0.703463   0.000000
     3  H    0.196852  -0.000000
     4  H    0.177683  -0.000000
     5  O   -0.378079  -0.000000
     6  H    0.236979   0.000000
     7  H    0.240957   0.000000
 Sum of Mulliken charges =  -0.00000   0.00000
 Mulliken charges and spin densities with hydrogens summed into heavy atoms:
               1          2
     1  C    0.406755  -0.000000
     2  C   -0.028675   0.000000
     5  O   -0.378079  -0.000000
 Electronic spatial extent (au):  <R**2>=            161.9525
 Charge=             -0.0000 electrons
 Dipole moment (field-independent basis, Debye):
    X=              2.3593    Y=              1.5613    Z=              0.0171  Tot=              2.8292
 Quadrupole moment (field-independent basis, Debye-Ang):
   XX=            -21.8974   YY=            -17.6193   ZZ=            -17.9835
   XY=             -1.4852   XZ=             -0.0757   YZ=              0.0445
 Traceless Quadrupole moment (field-independent basis, Debye-Ang):
   XX=             -2.7307   YY=              1.5475   ZZ=              1.1832
   XY=             -1.4852   XZ=             -0.0757   YZ=              0.0445
 Octapole moment (field-independent basis, Debye-Ang**2):
  XXX=              0.9564  YYY=              1.6733  ZZZ=              0.1907  XYY=             -0.8516
  XXY=              1.5105  XXZ=             -0.2831  XZZ=             -0.9870  YZZ=             -0.9425
  YYZ=             -0.1584  XYZ=              0.1241
 Hexadecapole moment (field-independent basis, Debye-Ang**3):
 XXXX=           -148.5414 YYYY=            -45.5131 ZZZZ=            -24.4742 XXXY=              2.2405
 XXXZ=             -0.5903 YYYX=             -0.8196 YYYZ=              0.3269 ZZZX=              0.0193
 ZZZY=             -0.0705 XXYY=            -30.1297 XXZZ=            -27.7879 YYZZ=            -11.2189
 XXYZ=              0.1977 YYXZ=             -0.3322 ZZXY=             -0.7292
 N-N= 7.004930093754D+01 E-N=-4.990994190658D+02  KE= 1.524448846313D+02
                          Isotropic Fermi Contact Couplings
        Atom                 a.u.       MegaHertz       Gauss      10(-4) cm-1
     1  C(13)              0.00000       0.00000       0.00000       0.00000
     2  C(13)             -0.00000      -0.00000      -0.00000      -0.00000
     3  H(1)               0.00000       0.00000       0.00000       0.00000
     4  H(1)               0.00000       0.00000       0.00000       0.00000
     5  O(17)              0.00000      -0.00000      -0.00000      -0.00000
     6  H(1)               0.00000       0.00000       0.00000       0.00000
     7  H(1)               0.00000       0.00000       0.00000       0.00000
 --------------------------------------------------------
       Center         ----  Spin Dipole Couplings  ----
                      3XX-RR        3YY-RR        3ZZ-RR
 --------------------------------------------------------
     1   Atom        0.000000      0.000000      0.000000
     2   Atom        0.000000      0.000000      0.000000
     3   Atom        0.000000      0.000000      0.000000
     4   Atom        0.000000      0.000000      0.000000
     5   Atom        0.000000      0.000000      0.000000
     6   Atom        0.000000      0.000000      0.000000
     7   Atom        0.000000      0.000000      0.000000
 --------------------------------------------------------
                        XY            XZ            YZ
 --------------------------------------------------------
     1   Atom        0.000000      0.000000      0.000000
     2   Atom        0.000000      0.000000      0.000000
     3   Atom        0.000000      0.000000      0.000000
     4   Atom        0.000000      0.000000      0.000000
     5   Atom        0.000000      0.000000      0.000000
     6   Atom        0.000000      0.000000      0.000000
     7   Atom        0.000000      0.000000      0.000000
 --------------------------------------------------------


 ---------------------------------------------------------------------------------
              Anisotropic Spin Dipole Couplings in Principal Axis System
 ---------------------------------------------------------------------------------

       Atom             a.u.   MegaHertz   Gauss  10(-4) cm-1        Axes

              Baa     0.0000     0.000     0.000     0.000  1.0000  0.0000  0.0000
     1 C(13)  Bbb     0.0000     0.000     0.000     0.000 -0.0000  1.0000  0.0000
              Bcc     0.0000     0.000     0.000     0.000  0.0000  0.0000  1.0000
 
              Baa     0.0000     0.000     0.000     0.000  1.0000  0.0000  0.0000
     2 C(13)  Bbb     0.0000     0.000     0.000     0.000 -0.0000  1.0000  0.0000
              Bcc     0.0000     0.000     0.000     0.000  0.0000  0.0000  1.0000
 
              Baa     0.0000     0.000     0.000     0.000  1.0000  0.0000  0.0000
     3 H(1)   Bbb     0.0000     0.000     0.000     0.000 -0.0000  1.0000  0.0000
              Bcc     0.0000     0.000     0.000     0.000  0.0000  0.0000  1.0000
 
              Baa     0.0000     0.000     0.000     0.000  1.0000  0.0000  0.0000
     4 H(1)   Bbb     0.0000     0.000     0.000     0.000 -0.0000  1.0000  0.0000
              Bcc     0.0000     0.000     0.000     0.000  0.0000  0.0000  1.0000
 
              Baa     0.0000    -0.000    -0.000    -0.000  1.0000  0.0000  0.0000
     5 O(17)  Bbb     0.0000    -0.000    -0.000    -0.000 -0.0000  1.0000  0.0000
              Bcc     0.0000    -0.000    -0.000    -0.000  0.0000  0.0000  1.0000
 
              Baa     0.0000     0.000     0.000     0.000  1.0000  0.0000  0.0000
     6 H(1)   Bbb     0.0000     0.000     0.000     0.000 -0.0000  1.0000  0.0000
              Bcc     0.0000     0.000     0.000     0.000  0.0000  0.0000  1.0000
 
              Baa     0.0000     0.000     0.000     0.000  1.0000  0.0000  0.0000
     7 H(1)   Bbb     0.0000     0.000     0.000     0.000 -0.0000  1.0000  0.0000
              Bcc     0.0000     0.000     0.000     0.000  0.0000  0.0000  1.0000
 

 ---------------------------------------------------------------------------------

 1\1\GINC-NODE32\SP\UB3LYP\6-31+G(d)\C2H4O1\YANZ\12-Oct-2023\0\\# ub3ly
 p/6-31+g(d)\\tmpdir/M2_ref_34.gjf\\0,1\C,0,0.35803021,-0.69509548,-0.0
 6228099\C,0,-1.0330974,-1.3184176,-0.02875126\H,0,-0.99835638,-2.40914
 399,-0.07674181\H,0,1.23473462,-1.18561468,-0.06712752\O,0,0.33366656,
 0.54069463,-0.02226801\H,0,-1.41477893,-0.93071278,0.93497418\H,0,-1.6
 3048379,-0.85812368,-0.82944811\\Version=ES64L-G16RevA.03\State=1-A\HF
 =-153.8227378\S2=0.\S2-1=0.\S2A=0.\RMSD=2.202e-09\Dipole=-0.1424,-1.10
 3881,-0.0114085\Quadrupole=0.8850016,-1.7628831,0.8778815,-1.4146371,0
 .0341197,0.0032558\PG=C01 [X(C2H4O1)]\\@


 THE NUMBERS ARE MEANINGLESS, BUT THE TRENDS ARE IMPORTANT.
     -- LARRY BURGGRAF
 Job cpu time:       0 days  0 hours  0 minutes 21.5 seconds.
 Elapsed time:       0 days  0 hours  0 minutes 10.9 seconds.
 File lengths (MBytes):  RWF=      6 Int=      0 D2E=      0 Chk=      1 Scr=      1
 Normal termination of Gaussian 16 at Thu Oct 12 15:12:20 2023.
