 Entering Gaussian System, Link 0=g16
 Initial command:
 /share/apps/gaussian/g16/l1.exe "/tmp/58286.mgr/Gau-29941.inp" -scrdir="/tmp/58286.mgr/"
 Entering Link 1 = /share/apps/gaussian/g16/l1.exe PID=     29942.
  
 Copyright (c) 1988,1990,1992,1993,1995,1998,2003,2009,2016,
            Gaussian, Inc.  All Rights Reserved.
  
 This is part of the Gaussian(R) 16 program.  It is based on
 the Gaussian(R) 09 system (copyright 2009, Gaussian, Inc.),
 the Gaussian(R) 03 system (copyright 2003, Gaussian, Inc.),
 the Gaussian(R) 98 system (copyright 1998, Gaussian, Inc.),
 the Gaussian(R) 94 system (copyright 1995, Gaussian, Inc.),
 the Gaussian 92(TM) system (copyright 1992, Gaussian, Inc.),
 the Gaussian 90(TM) system (copyright 1990, Gaussian, Inc.),
 the Gaussian 88(TM) system (copyright 1988, Gaussian, Inc.),
 the Gaussian 86(TM) system (copyright 1986, Carnegie Mellon
 University), and the Gaussian 82(TM) system (copyright 1983,
 Carnegie Mellon University). Gaussian is a federally registered
 trademark of Gaussian, Inc.
  
 This software contains proprietary and confidential information,
 including trade secrets, belonging to Gaussian, Inc.
  
 This software is provided under written license and may be
 used, copied, transmitted, or stored only in accord with that
 written license.
  
 The following legend is applicable only to US Government
 contracts under FAR:
  
                    RESTRICTED RIGHTS LEGEND
  
 Use, reproduction and disclosure by the US Government is
 subject to restrictions as set forth in subparagraphs (a)
 and (c) of the Commercial Computer Software - Restricted
 Rights clause in FAR 52.227-19.
  
 Gaussian, Inc.
 340 Quinnipiac St., Bldg. 40, Wallingford CT 06492
  
  
 ---------------------------------------------------------------
 Warning -- This program may not be used in any manner that
 competes with the business of Gaussian, Inc. or will provide
 assistance to any competitor of Gaussian, Inc.  The licensee
 of this program is prohibited from giving any competitor of
 Gaussian, Inc. access to this program.  By using this program,
 the user acknowledges that Gaussian, Inc. is engaged in the
 business of creating and licensing software in the field of
 computational chemistry and represents and warrants to the
 licensee that it is not a competitor of Gaussian, Inc. and that
 it will not use this program in any manner prohibited above.
 ---------------------------------------------------------------
  

 Cite this work as:
 Gaussian 16, Revision A.03,
 M. J. Frisch, G. W. Trucks, H. B. Schlegel, G. E. Scuseria, 
 M. A. Robb, J. R. Cheeseman, G. Scalmani, V. Barone, 
 G. A. Petersson, H. Nakatsuji, X. Li, M. Caricato, A. V. Marenich, 
 J. Bloino, B. G. Janesko, R. Gomperts, B. Mennucci, H. P. Hratchian, 
 J. V. Ortiz, A. F. Izmaylov, J. L. Sonnenberg, D. Williams-Young, 
 F. Ding, F. Lipparini, F. Egidi, J. Goings, B. Peng, A. Petrone, 
 T. Henderson, D. Ranasinghe, V. G. Zakrzewski, J. Gao, N. Rega, 
 G. Zheng, W. Liang, M. Hada, M. Ehara, K. Toyota, R. Fukuda, 
 J. Hasegawa, M. Ishida, T. Nakajima, Y. Honda, O. Kitao, H. Nakai, 
 T. Vreven, K. Throssell, J. A. Montgomery, Jr., J. E. Peralta, 
 F. Ogliaro, M. J. Bearpark, J. J. Heyd, E. N. Brothers, K. N. Kudin, 
 V. N. Staroverov, T. A. Keith, R. Kobayashi, J. Normand, 
 K. Raghavachari, A. P. Rendell, J. C. Burant, S. S. Iyengar, 
 J. Tomasi, M. Cossi, J. M. Millam, M. Klene, C. Adamo, R. Cammi, 
 J. W. Ochterski, R. L. Martin, K. Morokuma, O. Farkas, 
 J. B. Foresman, and D. J. Fox, Gaussian, Inc., Wallingford CT, 2016.
 
 ******************************************
 Gaussian 16:  ES64L-G16RevA.03 25-Dec-2016
                12-Oct-2023 
 ******************************************
 %nprocshared=2
 Will use up to    2 processors via shared memory.
 %mem=2GB
 ------------------
 # ub3lyp/6-31+g(d)
 ------------------
 1/38=1,172=1/1;
 2/12=2,17=6,18=5,40=1/2;
 3/5=1,6=6,7=11,11=2,25=1,30=1,74=-5,116=2/1,2,3;
 4//1;
 5/5=2,38=5/2;
 6/7=2,8=2,9=2,10=2,28=1/1;
 99/5=1,9=1/99;
 --------------------
 tmpdir/M2_ref_19.gjf
 --------------------
 Symbolic Z-matrix:
 Charge =  0 Multiplicity = 1
 C                     0.35803  -0.6951   -0.06228 
 C                     0.33039   0.70664  -0.0169 
 C                    -1.07241   1.28244   0.02074 
 H                     1.23473  -1.18561  -0.06713 
 H                    -0.64899  -1.14631  -0.03801 
 H                     1.1876    1.22734  -0.00154 
 H                    -1.60206   0.84923   0.89071 
 H                    -1.08735   2.3742    0.0001 
 H                    -1.65168   0.8275   -0.80422 
 
                          Input orientation:                          
 ---------------------------------------------------------------------
 Center     Atomic      Atomic             Coordinates (Angstroms)
 Number     Number       Type             X           Y           Z
 ---------------------------------------------------------------------
      1          6           0        0.358030   -0.695095   -0.062281
      2          6           0        0.330395    0.706637   -0.016895
      3          6           0       -1.072408    1.282439    0.020744
      4          1           0        1.234735   -1.185615   -0.067128
      5          1           0       -0.648988   -1.146310   -0.038009
      6          1           0        1.187602    1.227343   -0.001541
      7          1           0       -1.602059    0.849227    0.890705
      8          1           0       -1.087345    2.374200    0.000102
      9          1           0       -1.651680    0.827496   -0.804224
 ---------------------------------------------------------------------
                    Distance matrix (angstroms):
                    1          2          3          4          5
     1  C    0.000000
     2  C    1.402740   0.000000
     3  C    2.442067   1.516846   0.000000
     4  H    1.004611   2.097849   3.379633   0.000000
     5  H    1.103752   2.095960   2.466082   1.884357   0.000000
     6  H    2.094672   1.003082   2.260792   2.414309   3.001436
     7  H    2.671155   2.139731   1.106814   3.620142   2.398546
     8  H    3.393167   2.188845   1.092058   4.250748   3.547901
     9  H    2.628251   2.136145   1.105939   3.595458   2.342731
                    6          7          8          9
     6  H    0.000000
     7  H    2.953182   0.000000
     8  H    2.547679   1.839470   0.000000
     9  H    2.977533   1.695795   1.832405   0.000000
 Stoichiometry    C3H6
 Framework group  C1[X(C3H6)]
 Deg. of freedom    21
 Full point group                 C1      NOp   1
 Largest Abelian subgroup         C1      NOp   1
 Largest concise Abelian subgroup C1      NOp   1
                         Standard orientation:                         
 ---------------------------------------------------------------------
 Center     Atomic      Atomic             Coordinates (Angstroms)
 Number     Number       Type             X           Y           Z
 ---------------------------------------------------------------------
      1          6           0        1.244074   -0.268041   -0.007482
      2          6           0        0.126639    0.579875   -0.000016
      3          6           0       -1.195729   -0.163202    0.000145
      4          1           0        2.172370    0.115395    0.014577
      5          1           0        0.972664   -1.337707    0.012994
      6          1           0        0.249463    1.575297    0.014901
      7          1           0       -1.211244   -0.843669    0.872933
      8          1           0       -2.060256    0.502140   -0.049901
      9          1           0       -1.172902   -0.903252   -0.821382
 ---------------------------------------------------------------------
 Rotational constants (GHZ):          39.6159814          10.0537205           8.4059425
 Standard basis: 6-31+G(d) (6D, 7F)
 There are    69 symmetry adapted cartesian basis functions of A   symmetry.
 There are    69 symmetry adapted basis functions of A   symmetry.
    69 basis functions,   120 primitive gaussians,    69 cartesian basis functions
    12 alpha electrons       12 beta electrons
       nuclear repulsion energy        70.8620013338 Hartrees.
 NAtoms=    9 NActive=    9 NUniq=    9 SFac= 1.00D+00 NAtFMM=   60 NAOKFM=F Big=F
 Integral buffers will be    131072 words long.
 Raffenetti 2 integral format.
 Two-electron integral symmetry is turned on.
 One-electron integrals computed using PRISM.
 NBasis=    69 RedAO= T EigKep=  2.19D-04  NBF=    69
 NBsUse=    69 1.00D-06 EigRej= -1.00D+00 NBFU=    69
 ExpMin= 4.38D-02 ExpMax= 3.05D+03 ExpMxC= 4.57D+02 IAcc=3 IRadAn=         5 AccDes= 0.00D+00
 Harris functional with IExCor=  402 and IRadAn=       5 diagonalized for initial guess.
 HarFok:  IExCor=  402 AccDes= 0.00D+00 IRadAn=         5 IDoV= 1 UseB2=F ITyADJ=14
 ICtDFT=  3500011 ScaDFX=  1.000000  1.000000  1.000000  1.000000
 FoFCou: FMM=F IPFlag=           0 FMFlag=      100000 FMFlg1=           0
         NFxFlg=           0 DoJE=T BraDBF=F KetDBF=T FulRan=T
         wScrn=  0.000000 ICntrl=       500 IOpCl=  0 I1Cent=   200000004 NGrid=           0
         NMat0=    1 NMatS0=      1 NMatT0=    0 NMatD0=    1 NMtDS0=    0 NMtDT0=    0
 Petite list used in FoFCou.
 Initial guess <Sx>= 0.0000 <Sy>= 0.0000 <Sz>= 0.0000 <S**2>= 0.0000 S= 0.0000
 Keep R1 and R2 ints in memory in canonical form, NReq=7619695.
 Requested convergence on RMS density matrix=1.00D-08 within 128 cycles.
 Requested convergence on MAX density matrix=1.00D-06.
 Requested convergence on             energy=1.00D-06.
 No special actions if energy rises.
 SCF Done:  E(UB3LYP) =  -117.885210479     A.U. after   11 cycles
            NFock= 11  Conv=0.19D-08     -V/T= 2.0099
 <Sx>= 0.0000 <Sy>= 0.0000 <Sz>= 0.0000 <S**2>=-0.0000 S=-0.0000
 <L.S>= 0.000000000000E+00
 Annihilation of the first spin contaminant:
 S**2 before annihilation    -0.0000,   after     0.0000

 **********************************************************************

            Population analysis using the SCF density.

 **********************************************************************

 Orbital symmetries:
 Alpha Orbitals:
       Occupied  (A) (A) (A) (A) (A) (A) (A) (A) (A) (A) (A) (A)
       Virtual   (A) (A) (A) (A) (A) (A) (A) (A) (A) (A) (A) (A)
                 (A) (A) (A) (A) (A) (A) (A) (A) (A) (A) (A) (A)
                 (A) (A) (A) (A) (A) (A) (A) (A) (A) (A) (A) (A)
                 (A) (A) (A) (A) (A) (A) (A) (A) (A) (A) (A) (A)
                 (A) (A) (A) (A) (A) (A) (A) (A) (A)
 Beta  Orbitals:
       Occupied  (A) (A) (A) (A) (A) (A) (A) (A) (A) (A) (A) (A)
       Virtual   (A) (A) (A) (A) (A) (A) (A) (A) (A) (A) (A) (A)
                 (A) (A) (A) (A) (A) (A) (A) (A) (A) (A) (A) (A)
                 (A) (A) (A) (A) (A) (A) (A) (A) (A) (A) (A) (A)
                 (A) (A) (A) (A) (A) (A) (A) (A) (A) (A) (A) (A)
                 (A) (A) (A) (A) (A) (A) (A) (A) (A)
 The electronic state is 1-A.
 Alpha  occ. eigenvalues --  -10.19610 -10.18838 -10.18061  -0.78710  -0.67846
 Alpha  occ. eigenvalues --   -0.57517  -0.48219  -0.41672  -0.40411  -0.37889
 Alpha  occ. eigenvalues --   -0.36419  -0.24384
 Alpha virt. eigenvalues --   -0.01738   0.01619   0.03176   0.03539   0.06162
 Alpha virt. eigenvalues --    0.06545   0.07679   0.09584   0.09675   0.11634
 Alpha virt. eigenvalues --    0.12599   0.12861   0.16557   0.19632   0.21329
 Alpha virt. eigenvalues --    0.22825   0.26824   0.28235   0.30907   0.33546
 Alpha virt. eigenvalues --    0.36406   0.60565   0.63117   0.66757   0.68761
 Alpha virt. eigenvalues --    0.70571   0.73347   0.75375   0.79276   0.88618
 Alpha virt. eigenvalues --    0.90906   0.95099   0.99680   1.04607   1.06711
 Alpha virt. eigenvalues --    1.09256   1.15520   1.29531   1.34182   1.41788
 Alpha virt. eigenvalues --    1.45878   1.69093   1.80361   1.89350   2.02597
 Alpha virt. eigenvalues --    2.09720   2.14766   2.21426   2.22143   2.26267
 Alpha virt. eigenvalues --    2.39000   2.56829   2.73424   2.77642   4.18588
 Alpha virt. eigenvalues --    4.22627   4.43085
  Beta  occ. eigenvalues --  -10.19610 -10.18838 -10.18061  -0.78710  -0.67846
  Beta  occ. eigenvalues --   -0.57517  -0.48219  -0.41672  -0.40411  -0.37889
  Beta  occ. eigenvalues --   -0.36419  -0.24384
  Beta virt. eigenvalues --   -0.01738   0.01619   0.03176   0.03539   0.06162
  Beta virt. eigenvalues --    0.06545   0.07679   0.09584   0.09675   0.11634
  Beta virt. eigenvalues --    0.12599   0.12861   0.16557   0.19632   0.21329
  Beta virt. eigenvalues --    0.22825   0.26824   0.28235   0.30907   0.33546
  Beta virt. eigenvalues --    0.36406   0.60565   0.63117   0.66757   0.68761
  Beta virt. eigenvalues --    0.70571   0.73347   0.75375   0.79276   0.88618
  Beta virt. eigenvalues --    0.90906   0.95099   0.99680   1.04607   1.06711
  Beta virt. eigenvalues --    1.09256   1.15520   1.29531   1.34182   1.41788
  Beta virt. eigenvalues --    1.45878   1.69093   1.80361   1.89350   2.02597
  Beta virt. eigenvalues --    2.09720   2.14766   2.21426   2.22143   2.26267
  Beta virt. eigenvalues --    2.39000   2.56829   2.73424   2.77642   4.18588
  Beta virt. eigenvalues --    4.22627   4.43085
          Condensed to atoms (all electrons):
               1          2          3          4          5          6
     1  C    5.137950   0.582467  -0.016239   0.396568   0.408121  -0.011743
     2  C    0.582467   5.078013   0.152239  -0.045254  -0.085524   0.357451
     3  C   -0.016239   0.152239   5.533867   0.005341   0.001050  -0.043696
     4  H    0.396568  -0.045254   0.005341   0.496677  -0.030245  -0.005803
     5  H    0.408121  -0.085524   0.001050  -0.030245   0.524517   0.004968
     6  H   -0.011743   0.357451  -0.043696  -0.005803   0.004968   0.515555
     7  H   -0.017382  -0.057494   0.402980   0.000027   0.001158   0.002426
     8  H    0.012153  -0.058426   0.396211  -0.000191   0.000431  -0.002428
     9  H   -0.013343  -0.064374   0.406959   0.000134   0.001324   0.002583
               7          8          9
     1  C   -0.017382   0.012153  -0.013343
     2  C   -0.057494  -0.058426  -0.064374
     3  C    0.402980   0.396211   0.406959
     4  H    0.000027  -0.000191   0.000134
     5  H    0.001158   0.000431   0.001324
     6  H    0.002426  -0.002428   0.002583
     7  H    0.510660  -0.020434  -0.042165
     8  H   -0.020434   0.494246  -0.020722
     9  H   -0.042165  -0.020722   0.510266
          Atomic-Atomic Spin Densities.
               1          2          3          4          5          6
     1  C    0.000000   0.000000  -0.000000   0.000000  -0.000000  -0.000000
     2  C    0.000000  -0.000000  -0.000000   0.000000   0.000000   0.000000
     3  C   -0.000000  -0.000000  -0.000000  -0.000000   0.000000   0.000000
     4  H    0.000000   0.000000  -0.000000  -0.000000   0.000000   0.000000
     5  H   -0.000000   0.000000   0.000000   0.000000  -0.000000   0.000000
     6  H   -0.000000   0.000000   0.000000   0.000000   0.000000   0.000000
     7  H   -0.000000   0.000000   0.000000   0.000000   0.000000  -0.000000
     8  H   -0.000000  -0.000000   0.000000   0.000000  -0.000000   0.000000
     9  H    0.000000  -0.000000   0.000000   0.000000  -0.000000   0.000000
               7          8          9
     1  C   -0.000000  -0.000000   0.000000
     2  C    0.000000  -0.000000  -0.000000
     3  C    0.000000   0.000000   0.000000
     4  H    0.000000   0.000000   0.000000
     5  H    0.000000  -0.000000  -0.000000
     6  H   -0.000000   0.000000   0.000000
     7  H    0.000000   0.000000   0.000000
     8  H    0.000000  -0.000000   0.000000
     9  H    0.000000   0.000000   0.000000
 Mulliken charges and spin densities:
               1          2
     1  C   -0.478550   0.000000
     2  C    0.140903   0.000000
     3  C   -0.838711  -0.000000
     4  H    0.182748  -0.000000
     5  H    0.174201  -0.000000
     6  H    0.180687   0.000000
     7  H    0.220224   0.000000
     8  H    0.199161  -0.000000
     9  H    0.219336   0.000000
 Sum of Mulliken charges =  -0.00000  -0.00000
 Mulliken charges and spin densities with hydrogens summed into heavy atoms:
               1          2
     1  C   -0.121601   0.000000
     2  C    0.321590   0.000000
     3  C   -0.199989  -0.000000
 Electronic spatial extent (au):  <R**2>=            191.6805
 Charge=             -0.0000 electrons
 Dipole moment (field-independent basis, Debye):
    X=             -0.3748    Y=              0.0274    Z=              0.0542  Tot=              0.3797
 Quadrupole moment (field-independent basis, Debye-Ang):
   XX=            -20.0625   YY=            -18.7345   ZZ=            -22.6226
   XY=              0.1251   XZ=              0.0911   YZ=             -0.0224
 Traceless Quadrupole moment (field-independent basis, Debye-Ang):
   XX=              0.4107   YY=              1.7387   ZZ=             -2.1494
   XY=              0.1251   XZ=              0.0911   YZ=             -0.0224
 Octapole moment (field-independent basis, Debye-Ang**2):
  XXX=              1.8979  YYY=              0.9907  ZZZ=              0.1852  XYY=             -0.2997
  XXY=              1.9486  XXZ=              0.0607  XZZ=             -2.1194  YZZ=             -0.8277
  YYZ=              0.0680  XYZ=              0.0502
 Hexadecapole moment (field-independent basis, Debye-Ang**3):
 XXXX=           -172.8564 YYYY=            -59.1386 ZZZZ=            -36.6314 XXXY=             -0.2099
 XXXZ=              0.5980 YYYX=              0.5024 YYYZ=              0.0714 ZZZX=              0.0663
 ZZZY=             -0.0595 XXYY=            -40.0580 XXZZ=            -39.1107 YYZZ=            -16.6361
 XXYZ=             -0.1714 YYXZ=              0.1240 ZZXY=              0.6343
 N-N= 7.086200133382D+01 E-N=-4.136827402839D+02  KE= 1.167324356669D+02
                          Isotropic Fermi Contact Couplings
        Atom                 a.u.       MegaHertz       Gauss      10(-4) cm-1
     1  C(13)             -0.00000      -0.00000      -0.00000      -0.00000
     2  C(13)              0.00000       0.00000       0.00000       0.00000
     3  C(13)             -0.00000      -0.00000      -0.00000      -0.00000
     4  H(1)              -0.00000      -0.00000      -0.00000      -0.00000
     5  H(1)               0.00000       0.00000       0.00000       0.00000
     6  H(1)              -0.00000      -0.00000      -0.00000      -0.00000
     7  H(1)               0.00000       0.00000       0.00000       0.00000
     8  H(1)               0.00000       0.00000       0.00000       0.00000
     9  H(1)               0.00000       0.00000       0.00000       0.00000
 --------------------------------------------------------
       Center         ----  Spin Dipole Couplings  ----
                      3XX-RR        3YY-RR        3ZZ-RR
 --------------------------------------------------------
     1   Atom        0.000000      0.000000      0.000000
     2   Atom        0.000000      0.000000      0.000000
     3   Atom        0.000000      0.000000      0.000000
     4   Atom        0.000000      0.000000      0.000000
     5   Atom        0.000000      0.000000      0.000000
     6   Atom        0.000000      0.000000      0.000000
     7   Atom        0.000000      0.000000      0.000000
     8   Atom        0.000000      0.000000      0.000000
     9   Atom        0.000000      0.000000      0.000000
 --------------------------------------------------------
                        XY            XZ            YZ
 --------------------------------------------------------
     1   Atom        0.000000      0.000000      0.000000
     2   Atom        0.000000      0.000000      0.000000
     3   Atom        0.000000      0.000000      0.000000
     4   Atom        0.000000      0.000000      0.000000
     5   Atom        0.000000      0.000000      0.000000
     6   Atom        0.000000      0.000000      0.000000
     7   Atom        0.000000      0.000000      0.000000
     8   Atom        0.000000      0.000000      0.000000
     9   Atom        0.000000      0.000000      0.000000
 --------------------------------------------------------


 ---------------------------------------------------------------------------------
              Anisotropic Spin Dipole Couplings in Principal Axis System
 ---------------------------------------------------------------------------------

       Atom             a.u.   MegaHertz   Gauss  10(-4) cm-1        Axes

              Baa     0.0000     0.000     0.000     0.000  1.0000  0.0000  0.0000
     1 C(13)  Bbb     0.0000     0.000     0.000     0.000 -0.0000  1.0000  0.0000
              Bcc     0.0000     0.000     0.000     0.000  0.0000  0.0000  1.0000
 
              Baa     0.0000     0.000     0.000     0.000  1.0000  0.0000  0.0000
     2 C(13)  Bbb     0.0000     0.000     0.000     0.000 -0.0000  1.0000  0.0000
              Bcc     0.0000     0.000     0.000     0.000  0.0000  0.0000  1.0000
 
              Baa     0.0000     0.000     0.000     0.000  1.0000  0.0000  0.0000
     3 C(13)  Bbb     0.0000     0.000     0.000     0.000 -0.0000  1.0000  0.0000
              Bcc     0.0000     0.000     0.000     0.000  0.0000  0.0000  1.0000
 
              Baa     0.0000     0.000     0.000     0.000  1.0000  0.0000  0.0000
     4 H(1)   Bbb     0.0000     0.000     0.000     0.000 -0.0000  1.0000  0.0000
              Bcc     0.0000     0.000     0.000     0.000  0.0000  0.0000  1.0000
 
              Baa     0.0000     0.000     0.000     0.000  1.0000  0.0000  0.0000
     5 H(1)   Bbb     0.0000     0.000     0.000     0.000 -0.0000  1.0000  0.0000
              Bcc     0.0000     0.000     0.000     0.000  0.0000  0.0000  1.0000
 
              Baa     0.0000     0.000     0.000     0.000  1.0000  0.0000  0.0000
     6 H(1)   Bbb     0.0000     0.000     0.000     0.000 -0.0000  1.0000  0.0000
              Bcc     0.0000     0.000     0.000     0.000  0.0000  0.0000  1.0000
 
              Baa     0.0000     0.000     0.000     0.000  1.0000  0.0000  0.0000
     7 H(1)   Bbb     0.0000     0.000     0.000     0.000 -0.0000  1.0000  0.0000
              Bcc     0.0000     0.000     0.000     0.000  0.0000  0.0000  1.0000
 
              Baa     0.0000     0.000     0.000     0.000  1.0000  0.0000  0.0000
     8 H(1)   Bbb     0.0000     0.000     0.000     0.000 -0.0000  1.0000  0.0000
              Bcc     0.0000     0.000     0.000     0.000  0.0000  0.0000  1.0000
 
              Baa     0.0000     0.000     0.000     0.000  1.0000  0.0000  0.0000
     9 H(1)   Bbb     0.0000     0.000     0.000     0.000 -0.0000  1.0000  0.0000
              Bcc     0.0000     0.000     0.000     0.000  0.0000  0.0000  1.0000
 

 ---------------------------------------------------------------------------------

 1\1\GINC-NODE32\SP\UB3LYP\6-31+G(d)\C3H6\YANZ\12-Oct-2023\0\\# ub3lyp/
 6-31+g(d)\\tmpdir/M2_ref_19.gjf\\0,1\C,0,0.35803021,-0.69509548,-0.062
 28099\C,0,0.33039499,0.70663737,-0.01689504\C,0,-1.07240839,1.28243937
 ,0.02074375\H,0,1.23473462,-1.18561468,-0.06712752\H,0,-0.64898759,-1.
 14630964,-0.03800929\H,0,1.18760183,1.22734316,-0.00154069\H,0,-1.6020
 5949,0.84922693,0.89070546\H,0,-1.08734547,2.3742003,0.00010213\H,0,-1
 .65168046,0.82749647,-0.80422442\\Version=ES64L-G16RevA.03\State=1-A\H
 F=-117.8852105\S2=0.\S2-1=0.\S2A=0.\RMSD=1.895e-09\Dipole=-0.0826474,0
 .1216966,0.0258883\Quadrupole=1.0037828,0.5967183,-1.6005011,0.4579265
 ,0.000264,-0.0119891\PG=C01 [X(C3H6)]\\@


 IT WAS AN ACT OF DESPARATION. FOR SIX YEARS I HAD STRUGGLED WITH THE
 BLACKBODY THEORY. I KNEW THE PROBLEM WAS FUNDAMENTAL, AND I KNEW
 THE ANSWER. I HAD TO FIND A THEORETICAL EXPLANATION AT ANY COST,
 EXCEPT FOR THE INVIOLABLITY OF THE TWO LAWS OF THERMODYNAMICS.
   -- MAX PLANCK, 1931
 Job cpu time:       0 days  0 hours  0 minutes 30.1 seconds.
 Elapsed time:       0 days  0 hours  0 minutes 15.3 seconds.
 File lengths (MBytes):  RWF=      6 Int=      0 D2E=      0 Chk=      1 Scr=      1
 Normal termination of Gaussian 16 at Thu Oct 12 15:11:36 2023.
