 Entering Gaussian System, Link 0=g16
 Initial command:
 /share/apps/gaussian/g16/l1.exe "/tmp/58286.mgr/Gau-30054.inp" -scrdir="/tmp/58286.mgr/"
 Entering Link 1 = /share/apps/gaussian/g16/l1.exe PID=     30055.
  
 Copyright (c) 1988,1990,1992,1993,1995,1998,2003,2009,2016,
            Gaussian, Inc.  All Rights Reserved.
  
 This is part of the Gaussian(R) 16 program.  It is based on
 the Gaussian(R) 09 system (copyright 2009, Gaussian, Inc.),
 the Gaussian(R) 03 system (copyright 2003, Gaussian, Inc.),
 the Gaussian(R) 98 system (copyright 1998, Gaussian, Inc.),
 the Gaussian(R) 94 system (copyright 1995, Gaussian, Inc.),
 the Gaussian 92(TM) system (copyright 1992, Gaussian, Inc.),
 the Gaussian 90(TM) system (copyright 1990, Gaussian, Inc.),
 the Gaussian 88(TM) system (copyright 1988, Gaussian, Inc.),
 the Gaussian 86(TM) system (copyright 1986, Carnegie Mellon
 University), and the Gaussian 82(TM) system (copyright 1983,
 Carnegie Mellon University). Gaussian is a federally registered
 trademark of Gaussian, Inc.
  
 This software contains proprietary and confidential information,
 including trade secrets, belonging to Gaussian, Inc.
  
 This software is provided under written license and may be
 used, copied, transmitted, or stored only in accord with that
 written license.
  
 The following legend is applicable only to US Government
 contracts under FAR:
  
                    RESTRICTED RIGHTS LEGEND
  
 Use, reproduction and disclosure by the US Government is
 subject to restrictions as set forth in subparagraphs (a)
 and (c) of the Commercial Computer Software - Restricted
 Rights clause in FAR 52.227-19.
  
 Gaussian, Inc.
 340 Quinnipiac St., Bldg. 40, Wallingford CT 06492
  
  
 ---------------------------------------------------------------
 Warning -- This program may not be used in any manner that
 competes with the business of Gaussian, Inc. or will provide
 assistance to any competitor of Gaussian, Inc.  The licensee
 of this program is prohibited from giving any competitor of
 Gaussian, Inc. access to this program.  By using this program,
 the user acknowledges that Gaussian, Inc. is engaged in the
 business of creating and licensing software in the field of
 computational chemistry and represents and warrants to the
 licensee that it is not a competitor of Gaussian, Inc. and that
 it will not use this program in any manner prohibited above.
 ---------------------------------------------------------------
  

 Cite this work as:
 Gaussian 16, Revision A.03,
 M. J. Frisch, G. W. Trucks, H. B. Schlegel, G. E. Scuseria, 
 M. A. Robb, J. R. Cheeseman, G. Scalmani, V. Barone, 
 G. A. Petersson, H. Nakatsuji, X. Li, M. Caricato, A. V. Marenich, 
 J. Bloino, B. G. Janesko, R. Gomperts, B. Mennucci, H. P. Hratchian, 
 J. V. Ortiz, A. F. Izmaylov, J. L. Sonnenberg, D. Williams-Young, 
 F. Ding, F. Lipparini, F. Egidi, J. Goings, B. Peng, A. Petrone, 
 T. Henderson, D. Ranasinghe, V. G. Zakrzewski, J. Gao, N. Rega, 
 G. Zheng, W. Liang, M. Hada, M. Ehara, K. Toyota, R. Fukuda, 
 J. Hasegawa, M. Ishida, T. Nakajima, Y. Honda, O. Kitao, H. Nakai, 
 T. Vreven, K. Throssell, J. A. Montgomery, Jr., J. E. Peralta, 
 F. Ogliaro, M. J. Bearpark, J. J. Heyd, E. N. Brothers, K. N. Kudin, 
 V. N. Staroverov, T. A. Keith, R. Kobayashi, J. Normand, 
 K. Raghavachari, A. P. Rendell, J. C. Burant, S. S. Iyengar, 
 J. Tomasi, M. Cossi, J. M. Millam, M. Klene, C. Adamo, R. Cammi, 
 J. W. Ochterski, R. L. Martin, K. Morokuma, O. Farkas, 
 J. B. Foresman, and D. J. Fox, Gaussian, Inc., Wallingford CT, 2016.
 
 ******************************************
 Gaussian 16:  ES64L-G16RevA.03 25-Dec-2016
                12-Oct-2023 
 ******************************************
 %nprocshared=2
 Will use up to    2 processors via shared memory.
 %mem=2GB
 ------------------
 # ub3lyp/6-31+g(d)
 ------------------
 1/38=1,172=1/1;
 2/12=2,17=6,18=5,40=1/2;
 3/5=1,6=6,7=11,11=2,25=1,30=1,74=-5,116=2/1,2,3;
 4//1;
 5/5=2,38=5/2;
 6/7=2,8=2,9=2,10=2,28=1/1;
 99/5=1,9=1/99;
 --------------------
 tmpdir/M2_ref_14.gjf
 --------------------
 Symbolic Z-matrix:
 Charge =  0 Multiplicity = 1
 C                     1.56914  -1.37271  -0.06898 
 C                     0.35803  -0.6951   -0.06228 
 C                    -1.0331   -1.31842  -0.02875 
 O                     2.61978  -0.73184  -0.05704 
 H                     1.58782  -2.45944  -0.09246 
 O                     0.33367   0.54069  -0.02227 
 H                    -1.41478  -0.93071   0.93497 
 H                    -0.99836  -2.40914  -0.07674 
 H                    -1.63048  -0.85812  -0.82945 
 
                          Input orientation:                          
 ---------------------------------------------------------------------
 Center     Atomic      Atomic             Coordinates (Angstroms)
 Number     Number       Type             X           Y           Z
 ---------------------------------------------------------------------
      1          6           0        1.569139   -1.372715   -0.068976
      2          6           0        0.358030   -0.695095   -0.062281
      3          6           0       -1.033097   -1.318418   -0.028751
      4          8           0        2.619782   -0.731835   -0.057038
      5          1           0        1.587816   -2.459440   -0.092460
      6          8           0        0.333667    0.540695   -0.022268
      7          1           0       -1.414779   -0.930713    0.934974
      8          1           0       -0.998356   -2.409144   -0.076742
      9          1           0       -1.630484   -0.858124   -0.829448
 ---------------------------------------------------------------------
                    Distance matrix (angstroms):
                    1          2          3          4          5
     1  C    0.000000
     2  C    1.387803   0.000000
     3  C    2.603113   1.524759   0.000000
     4  O    1.230740   2.262056   3.699785   0.000000
     5  H    1.087139   2.150859   2.859227   2.012667   0.000000
     6  O    2.278093   1.236678   2.307463   2.616651   3.252480
     7  H    3.179158   2.047654   1.106690   4.159486   3.522528
     8  H    2.768804   2.185854   1.092334   3.988067   2.586709
     9  H    3.328769   2.137595   1.099935   4.321727   3.669444
                    6          7          8          9
     6  O    0.000000
     7  H    2.477582   0.000000
     8  H    3.237098   1.839222   0.000000
     9  H    2.542856   1.779040   1.836250   0.000000
 Stoichiometry    C3H4O2
 Framework group  C1[X(C3H4O2)]
 Deg. of freedom    21
 Full point group                 C1      NOp   1
 Largest Abelian subgroup         C1      NOp   1
 Largest concise Abelian subgroup C1      NOp   1
                         Standard orientation:                         
 ---------------------------------------------------------------------
 Center     Atomic      Atomic             Coordinates (Angstroms)
 Number     Number       Type             X           Y           Z
 ---------------------------------------------------------------------
      1          6           0        0.857024   -0.641934   -0.006333
      2          6           0       -0.338758    0.062205   -0.023348
      3          6           0       -1.743655   -0.529786    0.003188
      4          8           0        1.921423   -0.024230    0.008424
      5          1           0        0.851858   -1.729035   -0.013903
      6          8           0       -0.336155    1.298686   -0.001470
      7          1           0       -2.127388   -0.119655    0.956762
      8          1           0       -1.732577   -1.621600   -0.028642
      9          1           0       -2.321703   -0.068268   -0.810888
 ---------------------------------------------------------------------
 Rotational constants (GHZ):          11.9186955           4.1241759           3.1243640
 Standard basis: 6-31+G(d) (6D, 7F)
 There are   103 symmetry adapted cartesian basis functions of A   symmetry.
 There are   103 symmetry adapted basis functions of A   symmetry.
   103 basis functions,   176 primitive gaussians,   103 cartesian basis functions
    19 alpha electrons       19 beta electrons
       nuclear repulsion energy       162.1869904834 Hartrees.
 NAtoms=    9 NActive=    9 NUniq=    9 SFac= 1.00D+00 NAtFMM=   60 NAOKFM=F Big=F
 Integral buffers will be    131072 words long.
 Raffenetti 2 integral format.
 Two-electron integral symmetry is turned on.
 One-electron integrals computed using PRISM.
 NBasis=   103 RedAO= T EigKep=  6.48D-05  NBF=   103
 NBsUse=   103 1.00D-06 EigRej= -1.00D+00 NBFU=   103
 ExpMin= 4.38D-02 ExpMax= 5.48D+03 ExpMxC= 8.25D+02 IAcc=3 IRadAn=         5 AccDes= 0.00D+00
 Harris functional with IExCor=  402 and IRadAn=       5 diagonalized for initial guess.
 HarFok:  IExCor=  402 AccDes= 0.00D+00 IRadAn=         5 IDoV= 1 UseB2=F ITyADJ=14
 ICtDFT=  3500011 ScaDFX=  1.000000  1.000000  1.000000  1.000000
 FoFCou: FMM=F IPFlag=           0 FMFlag=      100000 FMFlg1=           0
         NFxFlg=           0 DoJE=T BraDBF=F KetDBF=T FulRan=T
         wScrn=  0.000000 ICntrl=       500 IOpCl=  0 I1Cent=   200000004 NGrid=           0
         NMat0=    1 NMatS0=      1 NMatT0=    0 NMatD0=    1 NMtDS0=    0 NMtDT0=    0
 Petite list used in FoFCou.
 Initial guess <Sx>= 0.0000 <Sy>= 0.0000 <Sz>= 0.0000 <S**2>= 0.0000 S= 0.0000
 Keep R1 and R2 ints in memory in canonical form, NReq=30543755.
 Requested convergence on RMS density matrix=1.00D-08 within 128 cycles.
 Requested convergence on MAX density matrix=1.00D-06.
 Requested convergence on             energy=1.00D-06.
 No special actions if energy rises.
 SCF Done:  E(UB3LYP) =  -267.131094196     A.U. after   12 cycles
            NFock= 12  Conv=0.47D-08     -V/T= 2.0085
 <Sx>= 0.0000 <Sy>= 0.0000 <Sz>= 0.0000 <S**2>=-0.0000 S=-0.0000
 <L.S>= 0.000000000000E+00
 Annihilation of the first spin contaminant:
 S**2 before annihilation    -0.0000,   after     0.0000

 **********************************************************************

            Population analysis using the SCF density.

 **********************************************************************

 Orbital symmetries:
 Alpha Orbitals:
       Occupied  (A) (A) (A) (A) (A) (A) (A) (A) (A) (A) (A) (A)
                 (A) (A) (A) (A) (A) (A) (A)
       Virtual   (A) (A) (A) (A) (A) (A) (A) (A) (A) (A) (A) (A)
                 (A) (A) (A) (A) (A) (A) (A) (A) (A) (A) (A) (A)
                 (A) (A) (A) (A) (A) (A) (A) (A) (A) (A) (A) (A)
                 (A) (A) (A) (A) (A) (A) (A) (A) (A) (A) (A) (A)
                 (A) (A) (A) (A) (A) (A) (A) (A) (A) (A) (A) (A)
                 (A) (A) (A) (A) (A) (A) (A) (A) (A) (A) (A) (A)
                 (A) (A) (A) (A) (A) (A) (A) (A) (A) (A) (A) (A)
 Beta  Orbitals:
       Occupied  (A) (A) (A) (A) (A) (A) (A) (A) (A) (A) (A) (A)
                 (A) (A) (A) (A) (A) (A) (A)
       Virtual   (A) (A) (A) (A) (A) (A) (A) (A) (A) (A) (A) (A)
                 (A) (A) (A) (A) (A) (A) (A) (A) (A) (A) (A) (A)
                 (A) (A) (A) (A) (A) (A) (A) (A) (A) (A) (A) (A)
                 (A) (A) (A) (A) (A) (A) (A) (A) (A) (A) (A) (A)
                 (A) (A) (A) (A) (A) (A) (A) (A) (A) (A) (A) (A)
                 (A) (A) (A) (A) (A) (A) (A) (A) (A) (A) (A) (A)
                 (A) (A) (A) (A) (A) (A) (A) (A) (A) (A) (A) (A)
 The electronic state is 1-A.
 Alpha  occ. eigenvalues --  -19.19884 -19.17893 -10.30650 -10.30277 -10.21883
 Alpha  occ. eigenvalues --   -1.09504  -1.05390  -0.79055  -0.71727  -0.57318
 Alpha  occ. eigenvalues --   -0.51198  -0.48614  -0.48285  -0.43510  -0.43330
 Alpha  occ. eigenvalues --   -0.42350  -0.36548  -0.30682  -0.28084
 Alpha virt. eigenvalues --   -0.13992  -0.00570   0.01909   0.02140   0.03596
 Alpha virt. eigenvalues --    0.05210   0.05591   0.06342   0.07571   0.08809
 Alpha virt. eigenvalues --    0.09954   0.12021   0.12847   0.14509   0.17510
 Alpha virt. eigenvalues --    0.19462   0.20210   0.22926   0.23783   0.24770
 Alpha virt. eigenvalues --    0.25383   0.26082   0.28579   0.29137   0.30292
 Alpha virt. eigenvalues --    0.34657   0.36039   0.40009   0.41905   0.52575
 Alpha virt. eigenvalues --    0.59918   0.62919   0.64901   0.65938   0.69632
 Alpha virt. eigenvalues --    0.71839   0.78125   0.82800   0.84120   0.90455
 Alpha virt. eigenvalues --    0.97792   1.00125   1.06981   1.09094   1.10587
 Alpha virt. eigenvalues --    1.15260   1.17237   1.23514   1.26972   1.27879
 Alpha virt. eigenvalues --    1.31935   1.35544   1.36746   1.39802   1.52227
 Alpha virt. eigenvalues --    1.55948   1.66547   1.72300   1.72999   1.77724
 Alpha virt. eigenvalues --    1.80461   1.84796   1.94663   1.95572   1.99827
 Alpha virt. eigenvalues --    2.06169   2.07026   2.22396   2.24317   2.32761
 Alpha virt. eigenvalues --    2.35450   2.41537   2.47617   2.58260   2.66677
 Alpha virt. eigenvalues --    2.81535   2.95949   3.08793   3.24442   4.02203
 Alpha virt. eigenvalues --    4.16214   4.29052   4.34047   4.61309
  Beta  occ. eigenvalues --  -19.19884 -19.17893 -10.30650 -10.30277 -10.21883
  Beta  occ. eigenvalues --   -1.09504  -1.05390  -0.79055  -0.71727  -0.57318
  Beta  occ. eigenvalues --   -0.51198  -0.48614  -0.48285  -0.43510  -0.43330
  Beta  occ. eigenvalues --   -0.42350  -0.36548  -0.30682  -0.28084
  Beta virt. eigenvalues --   -0.13992  -0.00570   0.01909   0.02140   0.03596
  Beta virt. eigenvalues --    0.05210   0.05591   0.06342   0.07571   0.08809
  Beta virt. eigenvalues --    0.09954   0.12021   0.12847   0.14509   0.17510
  Beta virt. eigenvalues --    0.19462   0.20210   0.22926   0.23783   0.24770
  Beta virt. eigenvalues --    0.25383   0.26082   0.28579   0.29137   0.30292
  Beta virt. eigenvalues --    0.34657   0.36039   0.40009   0.41905   0.52575
  Beta virt. eigenvalues --    0.59918   0.62919   0.64901   0.65938   0.69632
  Beta virt. eigenvalues --    0.71839   0.78125   0.82800   0.84120   0.90455
  Beta virt. eigenvalues --    0.97792   1.00125   1.06981   1.09094   1.10587
  Beta virt. eigenvalues --    1.15260   1.17237   1.23514   1.26972   1.27879
  Beta virt. eigenvalues --    1.31935   1.35544   1.36746   1.39802   1.52227
  Beta virt. eigenvalues --    1.55948   1.66547   1.72300   1.72999   1.77724
  Beta virt. eigenvalues --    1.80461   1.84796   1.94663   1.95572   1.99827
  Beta virt. eigenvalues --    2.06169   2.07026   2.22396   2.24317   2.32761
  Beta virt. eigenvalues --    2.35450   2.41537   2.47617   2.58260   2.66677
  Beta virt. eigenvalues --    2.81535   2.95949   3.08793   3.24442   4.02203
  Beta virt. eigenvalues --    4.16214   4.29052   4.34047   4.61309
          Condensed to atoms (all electrons):
               1          2          3          4          5          6
     1  C    6.523102  -0.981266  -0.426946   0.553764   0.363837  -0.144556
     2  C   -0.981266   6.510278  -0.063548  -0.245374  -0.146277   0.595236
     3  C   -0.426946  -0.063548   6.225831   0.044359   0.063670  -0.214015
     4  O    0.553764  -0.245374   0.044359   8.008016  -0.054712  -0.006276
     5  H    0.363837  -0.146277   0.063670  -0.054712   0.587140   0.003909
     6  O   -0.144556   0.595236  -0.214015  -0.006276   0.003909   8.136110
     7  H   -0.014151  -0.011509   0.377306  -0.000276  -0.000044  -0.013455
     8  H    0.072814  -0.115641   0.364036   0.000306  -0.000007   0.010882
     9  H   -0.005569  -0.020551   0.381800  -0.000281  -0.000048  -0.007980
               7          8          9
     1  C   -0.014151   0.072814  -0.005569
     2  C   -0.011509  -0.115641  -0.020551
     3  C    0.377306   0.364036   0.381800
     4  O   -0.000276   0.000306  -0.000281
     5  H   -0.000044  -0.000007  -0.000048
     6  O   -0.013455   0.010882  -0.007980
     7  H    0.459640  -0.022842  -0.019506
     8  H   -0.022842   0.514044  -0.022314
     9  H   -0.019506  -0.022314   0.446290
          Atomic-Atomic Spin Densities.
               1          2          3          4          5          6
     1  C    0.000000  -0.000000  -0.000000  -0.000000  -0.000000  -0.000000
     2  C   -0.000000   0.000000   0.000000   0.000000   0.000000   0.000000
     3  C   -0.000000   0.000000  -0.000000   0.000000  -0.000000  -0.000000
     4  O   -0.000000   0.000000   0.000000  -0.000000   0.000000   0.000000
     5  H   -0.000000   0.000000  -0.000000   0.000000  -0.000000  -0.000000
     6  O   -0.000000   0.000000  -0.000000   0.000000  -0.000000  -0.000000
     7  H    0.000000  -0.000000  -0.000000   0.000000   0.000000   0.000000
     8  H    0.000000   0.000000  -0.000000   0.000000  -0.000000  -0.000000
     9  H    0.000000   0.000000  -0.000000   0.000000   0.000000  -0.000000
               7          8          9
     1  C    0.000000   0.000000   0.000000
     2  C   -0.000000   0.000000   0.000000
     3  C   -0.000000  -0.000000  -0.000000
     4  O    0.000000   0.000000   0.000000
     5  H    0.000000  -0.000000   0.000000
     6  O    0.000000  -0.000000  -0.000000
     7  H   -0.000000   0.000000  -0.000000
     8  H    0.000000  -0.000000   0.000000
     9  H   -0.000000   0.000000  -0.000000
 Mulliken charges and spin densities:
               1          2
     1  C    0.058971  -0.000000
     2  C    0.478652   0.000000
     3  C   -0.752493  -0.000000
     4  O   -0.299525   0.000000
     5  H    0.182532  -0.000000
     6  O   -0.359854  -0.000000
     7  H    0.244837  -0.000000
     8  H    0.198721   0.000000
     9  H    0.248159   0.000000
 Sum of Mulliken charges =  -0.00000   0.00000
 Mulliken charges and spin densities with hydrogens summed into heavy atoms:
               1          2
     1  C    0.241503  -0.000000
     2  C    0.478652   0.000000
     3  C   -0.060776  -0.000000
     4  O   -0.299525   0.000000
     6  O   -0.359854  -0.000000
 Electronic spatial extent (au):  <R**2>=            397.6988
 Charge=             -0.0000 electrons
 Dipole moment (field-independent basis, Debye):
    X=             -2.5131    Y=             -3.4900    Z=             -0.0194  Tot=              4.3007
 Quadrupole moment (field-independent basis, Debye-Ang):
   XX=            -32.7752   YY=            -31.1647   ZZ=            -27.5789
   XY=             -0.5486   XZ=              0.0148   YZ=              0.0527
 Traceless Quadrupole moment (field-independent basis, Debye-Ang):
   XX=             -2.2689   YY=             -0.6585   ZZ=              2.9274
   XY=             -0.5486   XZ=              0.0148   YZ=              0.0527
 Octapole moment (field-independent basis, Debye-Ang**2):
  XXX=            -10.2083  YYY=             -4.6246  ZZZ=              0.2325  XYY=              3.9760
  XXY=              1.1889  XXZ=             -0.5875  XZZ=              0.8848  YZZ=              1.8565
  YYZ=             -0.1239  XYZ=             -0.0509
 Hexadecapole moment (field-independent basis, Debye-Ang**3):
 XXXX=           -361.5724 YYYY=           -133.7670 ZZZZ=            -32.7092 XXXY=             -3.8668
 XXXZ=              1.8929 YYYX=             -1.7852 YYYZ=              0.2532 ZZZX=             -0.2813
 ZZZY=              0.0902 XXYY=            -80.1630 XXZZ=            -57.7373 YYZZ=            -28.2415
 XXYZ=              0.1335 YYXZ=              0.2044 ZZXY=             -1.9199
 N-N= 1.621869904834D+02 E-N=-9.489205646668D+02  KE= 2.648702559654D+02
                          Isotropic Fermi Contact Couplings
        Atom                 a.u.       MegaHertz       Gauss      10(-4) cm-1
     1  C(13)              0.00000       0.00000       0.00000       0.00000
     2  C(13)              0.00000       0.00000       0.00000       0.00000
     3  C(13)              0.00000       0.00000       0.00000       0.00000
     4  O(17)             -0.00000       0.00000       0.00000       0.00000
     5  H(1)              -0.00000      -0.00000      -0.00000      -0.00000
     6  O(17)              0.00000      -0.00000      -0.00000      -0.00000
     7  H(1)               0.00000       0.00000       0.00000       0.00000
     8  H(1)               0.00000       0.00000       0.00000       0.00000
     9  H(1)               0.00000       0.00000       0.00000       0.00000
 --------------------------------------------------------
       Center         ----  Spin Dipole Couplings  ----
                      3XX-RR        3YY-RR        3ZZ-RR
 --------------------------------------------------------
     1   Atom        0.000000     -0.000000     -0.000000
     2   Atom       -0.000000     -0.000000      0.000000
     3   Atom        0.000000      0.000000     -0.000000
     4   Atom        0.000000      0.000000     -0.000000
     5   Atom       -0.000000      0.000000     -0.000000
     6   Atom        0.000000     -0.000000     -0.000000
     7   Atom        0.000000      0.000000     -0.000000
     8   Atom        0.000000     -0.000000      0.000000
     9   Atom       -0.000000      0.000000      0.000000
 --------------------------------------------------------
                        XY            XZ            YZ
 --------------------------------------------------------
     1   Atom        0.000000      0.000000     -0.000000
     2   Atom       -0.000000     -0.000000      0.000000
     3   Atom        0.000000      0.000000      0.000000
     4   Atom       -0.000000      0.000000      0.000000
     5   Atom        0.000000      0.000000     -0.000000
     6   Atom        0.000000     -0.000000     -0.000000
     7   Atom        0.000000      0.000000     -0.000000
     8   Atom       -0.000000      0.000000      0.000000
     9   Atom        0.000000     -0.000000      0.000000
 --------------------------------------------------------


 ---------------------------------------------------------------------------------
              Anisotropic Spin Dipole Couplings in Principal Axis System
 ---------------------------------------------------------------------------------

       Atom             a.u.   MegaHertz   Gauss  10(-4) cm-1        Axes

              Baa    -0.0000    -0.000    -0.000    -0.000 -0.2651  0.3230  0.9085
     1 C(13)  Bbb    -0.0000    -0.000    -0.000    -0.000 -0.3524  0.8446 -0.4030
              Bcc     0.0000     0.000     0.000     0.000  0.8975  0.4270  0.1101
 
              Baa    -0.0000    -0.000    -0.000    -0.000  0.6561  0.7486  0.0951
     2 C(13)  Bbb    -0.0000    -0.000    -0.000    -0.000  0.6271 -0.6110  0.4831
              Bcc     0.0000     0.000     0.000     0.000 -0.4198  0.2573  0.8704
 
              Baa    -0.0000    -0.000    -0.000    -0.000 -0.2231  0.0307  0.9743
     3 C(13)  Bbb     0.0000     0.000     0.000     0.000  0.8552 -0.4735  0.2107
              Bcc     0.0000     0.000     0.000     0.000  0.4679  0.8802  0.0794
 
              Baa    -0.0000     0.000     0.000     0.000 -0.0698 -0.0649  0.9954
     4 O(17)  Bbb     0.0000    -0.000    -0.000    -0.000  0.6447  0.7585  0.0946
              Bcc     0.0000    -0.000    -0.000    -0.000  0.7612 -0.6484  0.0111
 
              Baa    -0.0000    -0.000    -0.000    -0.000  0.9753 -0.2188 -0.0302
     5 H(1)   Bbb    -0.0000    -0.000    -0.000    -0.000  0.0311  0.0006  0.9995
              Bcc     0.0000     0.000     0.000     0.000  0.2187  0.9758 -0.0074
 
              Baa    -0.0000     0.000     0.000     0.000  0.6563 -0.1789  0.7330
     6 O(17)  Bbb    -0.0000     0.000     0.000     0.000 -0.0169  0.9677  0.2514
              Bcc     0.0000    -0.000    -0.000    -0.000  0.7543  0.1774 -0.6321
 
              Baa    -0.0000    -0.000    -0.000    -0.000 -0.5353  0.5348  0.6538
     7 H(1)   Bbb     0.0000     0.000     0.000     0.000  0.6852  0.7275 -0.0341
              Bcc     0.0000     0.000     0.000     0.000  0.4939 -0.4298  0.7559
 
              Baa    -0.0000    -0.000    -0.000    -0.000  0.3173  0.9439 -0.0913
     8 H(1)   Bbb     0.0000     0.000     0.000     0.000  0.1916  0.0305  0.9810
              Bcc     0.0000     0.000     0.000     0.000  0.9288 -0.3287 -0.1712
 
              Baa    -0.0000    -0.000    -0.000    -0.000  0.7573 -0.5228  0.3914
     9 H(1)   Bbb     0.0000     0.000     0.000     0.000  0.5867  0.8078 -0.0560
              Bcc     0.0000     0.000     0.000     0.000 -0.2869  0.2721  0.9185
 

 ---------------------------------------------------------------------------------

 1\1\GINC-NODE32\SP\UB3LYP\6-31+G(d)\C3H4O2\YANZ\12-Oct-2023\0\\# ub3ly
 p/6-31+g(d)\\tmpdir/M2_ref_14.gjf\\0,1\C,0,1.5691386,-1.37271489,-0.06
 897614\C,0,0.35803021,-0.69509548,-0.06228099\C,0,-1.0330974,-1.318417
 6,-0.02875126\O,0,2.6197821,-0.73183501,-0.05703807\H,0,1.58781592,-2.
 45944017,-0.09245997\O,0,0.33366656,0.54069463,-0.02226801\H,0,-1.4147
 7893,-0.93071278,0.93497418\H,0,-0.99835638,-2.40914399,-0.07674181\H,
 0,-1.63048379,-0.85812368,-0.82944811\\Version=ES64L-G16RevA.03\State=
 1-A\HF=-267.1310942\S2=0.\S2-1=0.\S2A=0.\RMSD=4.733e-09\Dipole=-0.9582
 887,-1.3944022,-0.0167702\Quadrupole=-1.6676167,-0.5088168,2.1764336,-
 0.4341213,0.0480775,0.0055868\PG=C01 [X(C3H4O2)]\\@


 ERROR IS A HARDY PLANT... IT FLOURISHETH IN EVERY SOIL.
            MARTIN FARQUHAR TUPPER
 Job cpu time:       0 days  0 hours  0 minutes 59.0 seconds.
 Elapsed time:       0 days  0 hours  0 minutes 30.1 seconds.
 File lengths (MBytes):  RWF=     10 Int=      0 D2E=      0 Chk=      2 Scr=      1
 Normal termination of Gaussian 16 at Thu Oct 12 15:12:02 2023.
