 Entering Gaussian System, Link 0=g16
 Initial command:
 /share/apps/gaussian/g16/l1.exe "/tmp/58286.mgr/Gau-30019.inp" -scrdir="/tmp/58286.mgr/"
 Entering Link 1 = /share/apps/gaussian/g16/l1.exe PID=     30020.
  
 Copyright (c) 1988,1990,1992,1993,1995,1998,2003,2009,2016,
            Gaussian, Inc.  All Rights Reserved.
  
 This is part of the Gaussian(R) 16 program.  It is based on
 the Gaussian(R) 09 system (copyright 2009, Gaussian, Inc.),
 the Gaussian(R) 03 system (copyright 2003, Gaussian, Inc.),
 the Gaussian(R) 98 system (copyright 1998, Gaussian, Inc.),
 the Gaussian(R) 94 system (copyright 1995, Gaussian, Inc.),
 the Gaussian 92(TM) system (copyright 1992, Gaussian, Inc.),
 the Gaussian 90(TM) system (copyright 1990, Gaussian, Inc.),
 the Gaussian 88(TM) system (copyright 1988, Gaussian, Inc.),
 the Gaussian 86(TM) system (copyright 1986, Carnegie Mellon
 University), and the Gaussian 82(TM) system (copyright 1983,
 Carnegie Mellon University). Gaussian is a federally registered
 trademark of Gaussian, Inc.
  
 This software contains proprietary and confidential information,
 including trade secrets, belonging to Gaussian, Inc.
  
 This software is provided under written license and may be
 used, copied, transmitted, or stored only in accord with that
 written license.
  
 The following legend is applicable only to US Government
 contracts under FAR:
  
                    RESTRICTED RIGHTS LEGEND
  
 Use, reproduction and disclosure by the US Government is
 subject to restrictions as set forth in subparagraphs (a)
 and (c) of the Commercial Computer Software - Restricted
 Rights clause in FAR 52.227-19.
  
 Gaussian, Inc.
 340 Quinnipiac St., Bldg. 40, Wallingford CT 06492
  
  
 ---------------------------------------------------------------
 Warning -- This program may not be used in any manner that
 competes with the business of Gaussian, Inc. or will provide
 assistance to any competitor of Gaussian, Inc.  The licensee
 of this program is prohibited from giving any competitor of
 Gaussian, Inc. access to this program.  By using this program,
 the user acknowledges that Gaussian, Inc. is engaged in the
 business of creating and licensing software in the field of
 computational chemistry and represents and warrants to the
 licensee that it is not a competitor of Gaussian, Inc. and that
 it will not use this program in any manner prohibited above.
 ---------------------------------------------------------------
  

 Cite this work as:
 Gaussian 16, Revision A.03,
 M. J. Frisch, G. W. Trucks, H. B. Schlegel, G. E. Scuseria, 
 M. A. Robb, J. R. Cheeseman, G. Scalmani, V. Barone, 
 G. A. Petersson, H. Nakatsuji, X. Li, M. Caricato, A. V. Marenich, 
 J. Bloino, B. G. Janesko, R. Gomperts, B. Mennucci, H. P. Hratchian, 
 J. V. Ortiz, A. F. Izmaylov, J. L. Sonnenberg, D. Williams-Young, 
 F. Ding, F. Lipparini, F. Egidi, J. Goings, B. Peng, A. Petrone, 
 T. Henderson, D. Ranasinghe, V. G. Zakrzewski, J. Gao, N. Rega, 
 G. Zheng, W. Liang, M. Hada, M. Ehara, K. Toyota, R. Fukuda, 
 J. Hasegawa, M. Ishida, T. Nakajima, Y. Honda, O. Kitao, H. Nakai, 
 T. Vreven, K. Throssell, J. A. Montgomery, Jr., J. E. Peralta, 
 F. Ogliaro, M. J. Bearpark, J. J. Heyd, E. N. Brothers, K. N. Kudin, 
 V. N. Staroverov, T. A. Keith, R. Kobayashi, J. Normand, 
 K. Raghavachari, A. P. Rendell, J. C. Burant, S. S. Iyengar, 
 J. Tomasi, M. Cossi, J. M. Millam, M. Klene, C. Adamo, R. Cammi, 
 J. W. Ochterski, R. L. Martin, K. Morokuma, O. Farkas, 
 J. B. Foresman, and D. J. Fox, Gaussian, Inc., Wallingford CT, 2016.
 
 ******************************************
 Gaussian 16:  ES64L-G16RevA.03 25-Dec-2016
                12-Oct-2023 
 ******************************************
 %nprocshared=2
 Will use up to    2 processors via shared memory.
 %mem=2GB
 ------------------
 # ub3lyp/6-31+g(d)
 ------------------
 1/38=1,172=1/1;
 2/12=2,17=6,18=5,40=1/2;
 3/5=1,6=6,7=11,11=2,25=1,30=1,74=-5,116=2/1,2,3;
 4//1;
 5/5=2,38=5/2;
 6/7=2,8=2,9=2,10=2,28=1/1;
 99/5=1,9=1/99;
 --------------------
 tmpdir/M2_ref_24.gjf
 --------------------
 Symbolic Z-matrix:
 Charge =  0 Multiplicity = 1
 C                     0.33039   0.70664  -0.0169 
 C                     1.51457   1.42596   0.00432 
 H                     1.49361   2.51222   0.04105 
 O                     0.35476  -0.52915  -0.05691 
 H                    -0.68507   1.12345   0.01035 
 O                     2.58962   0.82554  -0.01711 
 
                          Input orientation:                          
 ---------------------------------------------------------------------
 Center     Atomic      Atomic             Coordinates (Angstroms)
 Number     Number       Type             X           Y           Z
 ---------------------------------------------------------------------
      1          6           0        0.330395    0.706637   -0.016895
      2          6           0        1.514569    1.425958    0.004316
      3          1           0        1.493615    2.512221    0.041045
      4          8           0        0.354759   -0.529153   -0.056908
      5          1           0       -0.685075    1.123452    0.010351
      6          8           0        2.589615    0.825544   -0.017106
 ---------------------------------------------------------------------
                    Distance matrix (angstroms):
                    1          2          3          4          5
     1  C    0.000000
     2  C    1.385691   0.000000
     3  H    2.148621   1.087087   0.000000
     4  O    1.236678   2.274063   3.249084   0.000000
     5  H    1.098024   2.220355   2.583856   1.953684   0.000000
     6  O    2.262347   1.231536   2.012332   2.613689   3.288327
                    6
     6  O    0.000000
 Stoichiometry    C2H2O2
 Framework group  C1[X(C2H2O2)]
 Deg. of freedom    12
 Full point group                 C1      NOp   1
 Largest Abelian subgroup         C1      NOp   1
 Largest concise Abelian subgroup C1      NOp   1
                         Standard orientation:                         
 ---------------------------------------------------------------------
 Center     Atomic      Atomic             Coordinates (Angstroms)
 Number     Number       Type             X           Y           Z
 ---------------------------------------------------------------------
      1          6           0       -0.686246    0.509094   -0.001526
      2          6           0        0.699443    0.511205   -0.000938
      3          1           0        1.244552    1.451744   -0.000657
      4          8           0       -1.305915   -0.561131   -0.000072
      5          1           0       -1.338602    1.392259    0.008775
      6          8           0        1.307774   -0.559593    0.000905
 ---------------------------------------------------------------------
 Rotational constants (GHZ):          24.9791417           7.2692970           5.6307000
 Standard basis: 6-31+G(d) (6D, 7F)
 There are    80 symmetry adapted cartesian basis functions of A   symmetry.
 There are    80 symmetry adapted basis functions of A   symmetry.
    80 basis functions,   136 primitive gaussians,    80 cartesian basis functions
    15 alpha electrons       15 beta electrons
       nuclear repulsion energy       106.0529639326 Hartrees.
 NAtoms=    6 NActive=    6 NUniq=    6 SFac= 1.00D+00 NAtFMM=   60 NAOKFM=F Big=F
 Integral buffers will be    131072 words long.
 Raffenetti 2 integral format.
 Two-electron integral symmetry is turned on.
 One-electron integrals computed using PRISM.
 NBasis=    80 RedAO= T EigKep=  1.27D-04  NBF=    80
 NBsUse=    80 1.00D-06 EigRej= -1.00D+00 NBFU=    80
 ExpMin= 4.38D-02 ExpMax= 5.48D+03 ExpMxC= 8.25D+02 IAcc=3 IRadAn=         5 AccDes= 0.00D+00
 Harris functional with IExCor=  402 and IRadAn=       5 diagonalized for initial guess.
 HarFok:  IExCor=  402 AccDes= 0.00D+00 IRadAn=         5 IDoV= 1 UseB2=F ITyADJ=14
 ICtDFT=  3500011 ScaDFX=  1.000000  1.000000  1.000000  1.000000
 FoFCou: FMM=F IPFlag=           0 FMFlag=      100000 FMFlg1=           0
         NFxFlg=           0 DoJE=T BraDBF=F KetDBF=T FulRan=T
         wScrn=  0.000000 ICntrl=       500 IOpCl=  0 I1Cent=   200000004 NGrid=           0
         NMat0=    1 NMatS0=      1 NMatT0=    0 NMatD0=    1 NMtDS0=    0 NMtDT0=    0
 Petite list used in FoFCou.
 Initial guess <Sx>= 0.0000 <Sy>= 0.0000 <Sz>= 0.0000 <S**2>= 0.0000 S= 0.0000
 Keep R1 and R2 ints in memory in canonical form, NReq=12310292.
 Requested convergence on RMS density matrix=1.00D-08 within 128 cycles.
 Requested convergence on MAX density matrix=1.00D-06.
 Requested convergence on             energy=1.00D-06.
 No special actions if energy rises.
 SCF Done:  E(UB3LYP) =  -227.807197842     A.U. after   11 cycles
            NFock= 11  Conv=0.50D-08     -V/T= 2.0083
 <Sx>= 0.0000 <Sy>= 0.0000 <Sz>= 0.0000 <S**2>=-0.0000 S=-0.0000
 <L.S>= 0.000000000000E+00
 Annihilation of the first spin contaminant:
 S**2 before annihilation    -0.0000,   after     0.0000

 **********************************************************************

            Population analysis using the SCF density.

 **********************************************************************

 Orbital symmetries:
 Alpha Orbitals:
       Occupied  (A) (A) (A) (A) (A) (A) (A) (A) (A) (A) (A) (A)
                 (A) (A) (A)
       Virtual   (A) (A) (A) (A) (A) (A) (A) (A) (A) (A) (A) (A)
                 (A) (A) (A) (A) (A) (A) (A) (A) (A) (A) (A) (A)
                 (A) (A) (A) (A) (A) (A) (A) (A) (A) (A) (A) (A)
                 (A) (A) (A) (A) (A) (A) (A) (A) (A) (A) (A) (A)
                 (A) (A) (A) (A) (A) (A) (A) (A) (A) (A) (A) (A)
                 (A) (A) (A) (A) (A)
 Beta  Orbitals:
       Occupied  (A) (A) (A) (A) (A) (A) (A) (A) (A) (A) (A) (A)
                 (A) (A) (A)
       Virtual   (A) (A) (A) (A) (A) (A) (A) (A) (A) (A) (A) (A)
                 (A) (A) (A) (A) (A) (A) (A) (A) (A) (A) (A) (A)
                 (A) (A) (A) (A) (A) (A) (A) (A) (A) (A) (A) (A)
                 (A) (A) (A) (A) (A) (A) (A) (A) (A) (A) (A) (A)
                 (A) (A) (A) (A) (A) (A) (A) (A) (A) (A) (A) (A)
                 (A) (A) (A) (A) (A)
 The electronic state is 1-A.
 Alpha  occ. eigenvalues --  -19.20483 -19.20078 -10.31257 -10.30949  -1.10308
 Alpha  occ. eigenvalues --   -1.06292  -0.76689  -0.58813  -0.56981  -0.48493
 Alpha  occ. eigenvalues --   -0.46574  -0.45497  -0.38875  -0.31584  -0.29527
 Alpha virt. eigenvalues --   -0.15060  -0.00159   0.01576   0.02693   0.03183
 Alpha virt. eigenvalues --    0.04636   0.07210   0.07530   0.09491   0.14748
 Alpha virt. eigenvalues --    0.16999   0.18310   0.20456   0.21294   0.23569
 Alpha virt. eigenvalues --    0.24530   0.26407   0.27121   0.29489   0.32359
 Alpha virt. eigenvalues --    0.35588   0.40553   0.52435   0.60448   0.60540
 Alpha virt. eigenvalues --    0.65429   0.76028   0.77454   0.82128   0.88238
 Alpha virt. eigenvalues --    0.99222   1.08978   1.12396   1.13394   1.15070
 Alpha virt. eigenvalues --    1.21095   1.21348   1.27059   1.29396   1.32157
 Alpha virt. eigenvalues --    1.40264   1.46124   1.54368   1.63896   1.67329
 Alpha virt. eigenvalues --    1.71700   1.76024   1.84091   1.87810   2.00977
 Alpha virt. eigenvalues --    2.06442   2.10298   2.25352   2.38696   2.39701
 Alpha virt. eigenvalues --    2.48356   2.64606   2.70264   2.89300   3.01946
 Alpha virt. eigenvalues --    3.17507   3.98889   4.19309   4.26023   4.42054
  Beta  occ. eigenvalues --  -19.20483 -19.20078 -10.31257 -10.30949  -1.10308
  Beta  occ. eigenvalues --   -1.06292  -0.76689  -0.58813  -0.56981  -0.48493
  Beta  occ. eigenvalues --   -0.46574  -0.45497  -0.38875  -0.31584  -0.29527
  Beta virt. eigenvalues --   -0.15060  -0.00159   0.01576   0.02693   0.03183
  Beta virt. eigenvalues --    0.04636   0.07210   0.07530   0.09491   0.14748
  Beta virt. eigenvalues --    0.16999   0.18310   0.20456   0.21294   0.23569
  Beta virt. eigenvalues --    0.24530   0.26407   0.27121   0.29489   0.32359
  Beta virt. eigenvalues --    0.35588   0.40553   0.52435   0.60448   0.60540
  Beta virt. eigenvalues --    0.65429   0.76028   0.77454   0.82128   0.88238
  Beta virt. eigenvalues --    0.99222   1.08978   1.12396   1.13394   1.15070
  Beta virt. eigenvalues --    1.21095   1.21348   1.27059   1.29396   1.32157
  Beta virt. eigenvalues --    1.40264   1.46124   1.54368   1.63896   1.67329
  Beta virt. eigenvalues --    1.71700   1.76024   1.84091   1.87810   2.00977
  Beta virt. eigenvalues --    2.06442   2.10298   2.25352   2.38696   2.39701
  Beta virt. eigenvalues --    2.48356   2.64606   2.70264   2.89300   3.01946
  Beta virt. eigenvalues --    3.17507   3.98889   4.19309   4.26023   4.42054
          Condensed to atoms (all electrons):
               1          2          3          4          5          6
     1  C    5.494045  -0.252071  -0.115469   0.535316   0.403310  -0.177874
     2  C   -0.252071   5.495349   0.387145  -0.176929  -0.119837   0.535882
     3  H   -0.115469   0.387145   0.593796   0.004676   0.008364  -0.061229
     4  O    0.535316  -0.176929   0.004676   8.014080  -0.068361  -0.002926
     5  H    0.403310  -0.119837   0.008364  -0.068361   0.586815   0.003569
     6  O   -0.177874   0.535882  -0.061229  -0.002926   0.003569   8.008782
          Atomic-Atomic Spin Densities.
               1          2          3          4          5          6
     1  C   -0.000000  -0.000000  -0.000000  -0.000000  -0.000000  -0.000000
     2  C   -0.000000   0.000000   0.000000   0.000000   0.000000   0.000000
     3  H   -0.000000   0.000000  -0.000000   0.000000   0.000000  -0.000000
     4  O   -0.000000   0.000000   0.000000   0.000000   0.000000  -0.000000
     5  H   -0.000000   0.000000   0.000000   0.000000   0.000000  -0.000000
     6  O   -0.000000   0.000000  -0.000000  -0.000000  -0.000000  -0.000000
 Mulliken charges and spin densities:
               1          2
     1  C    0.112743  -0.000000
     2  C    0.130460   0.000000
     3  H    0.182717  -0.000000
     4  O   -0.305856   0.000000
     5  H    0.186140   0.000000
     6  O   -0.306205  -0.000000
 Sum of Mulliken charges =  -0.00000  -0.00000
 Mulliken charges and spin densities with hydrogens summed into heavy atoms:
               1          2
     1  C    0.298883  -0.000000
     2  C    0.313178   0.000000
     4  O   -0.305856   0.000000
     6  O   -0.306205  -0.000000
 Electronic spatial extent (au):  <R**2>=            225.4655
 Charge=              0.0000 electrons
 Dipole moment (field-independent basis, Debye):
    X=              0.0140    Y=              3.8835    Z=             -0.0009  Tot=              3.8835
 Quadrupole moment (field-independent basis, Debye-Ang):
   XX=            -26.1772   YY=            -22.1304   ZZ=            -21.4176
   XY=             -0.0536   XZ=             -0.0092   YZ=              0.0020
 Traceless Quadrupole moment (field-independent basis, Debye-Ang):
   XX=             -2.9355   YY=              1.1113   ZZ=              1.8241
   XY=             -0.0536   XZ=             -0.0092   YZ=              0.0020
 Octapole moment (field-independent basis, Debye-Ang**2):
  XXX=             -0.3408  YYY=             -0.1311  ZZZ=              0.0027  XYY=              0.1546
  XXY=              5.2841  XXZ=              0.0000  XZZ=              0.0688  YZZ=             -1.1153
  YYZ=              0.0127  XYZ=             -0.0077
 Hexadecapole moment (field-independent basis, Debye-Ang**3):
 XXXX=           -192.8680 YYYY=            -75.6087 ZZZZ=            -19.3028 XXXY=             -0.6157
 XXXZ=             -0.0227 YYYX=              0.2343 YYYZ=              0.0055 ZZZX=              0.0000
 ZZZY=             -0.0066 XXYY=            -40.2203 XXZZ=            -32.4757 YYZZ=            -15.9114
 XXYZ=              0.0215 YYXZ=             -0.0213 ZZXY=              0.0337
 N-N= 1.060529639326D+02 E-N=-7.459440234941D+02  KE= 2.259371521492D+02
                          Isotropic Fermi Contact Couplings
        Atom                 a.u.       MegaHertz       Gauss      10(-4) cm-1
     1  C(13)             -0.00000      -0.00000      -0.00000      -0.00000
     2  C(13)             -0.00000      -0.00000      -0.00000      -0.00000
     3  H(1)              -0.00000      -0.00000      -0.00000      -0.00000
     4  O(17)              0.00000      -0.00000      -0.00000      -0.00000
     5  H(1)              -0.00000      -0.00000      -0.00000      -0.00000
     6  O(17)              0.00000      -0.00000      -0.00000      -0.00000
 --------------------------------------------------------
       Center         ----  Spin Dipole Couplings  ----
                      3XX-RR        3YY-RR        3ZZ-RR
 --------------------------------------------------------
     1   Atom        0.000000      0.000000      0.000000
     2   Atom        0.000000      0.000000      0.000000
     3   Atom        0.000000      0.000000      0.000000
     4   Atom        0.000000      0.000000      0.000000
     5   Atom        0.000000      0.000000      0.000000
     6   Atom        0.000000      0.000000      0.000000
 --------------------------------------------------------
                        XY            XZ            YZ
 --------------------------------------------------------
     1   Atom        0.000000      0.000000      0.000000
     2   Atom        0.000000      0.000000      0.000000
     3   Atom        0.000000      0.000000      0.000000
     4   Atom        0.000000      0.000000      0.000000
     5   Atom        0.000000      0.000000      0.000000
     6   Atom        0.000000      0.000000      0.000000
 --------------------------------------------------------


 ---------------------------------------------------------------------------------
              Anisotropic Spin Dipole Couplings in Principal Axis System
 ---------------------------------------------------------------------------------

       Atom             a.u.   MegaHertz   Gauss  10(-4) cm-1        Axes

              Baa     0.0000     0.000     0.000     0.000  1.0000  0.0000  0.0000
     1 C(13)  Bbb     0.0000     0.000     0.000     0.000 -0.0000  1.0000  0.0000
              Bcc     0.0000     0.000     0.000     0.000  0.0000  0.0000  1.0000
 
              Baa     0.0000     0.000     0.000     0.000  1.0000  0.0000  0.0000
     2 C(13)  Bbb     0.0000     0.000     0.000     0.000 -0.0000  1.0000  0.0000
              Bcc     0.0000     0.000     0.000     0.000  0.0000  0.0000  1.0000
 
              Baa     0.0000     0.000     0.000     0.000  1.0000  0.0000  0.0000
     3 H(1)   Bbb     0.0000     0.000     0.000     0.000 -0.0000  1.0000  0.0000
              Bcc     0.0000     0.000     0.000     0.000  0.0000  0.0000  1.0000
 
              Baa     0.0000    -0.000    -0.000    -0.000  1.0000  0.0000  0.0000
     4 O(17)  Bbb     0.0000    -0.000    -0.000    -0.000 -0.0000  1.0000  0.0000
              Bcc     0.0000    -0.000    -0.000    -0.000  0.0000  0.0000  1.0000
 
              Baa     0.0000     0.000     0.000     0.000  1.0000  0.0000  0.0000
     5 H(1)   Bbb     0.0000     0.000     0.000     0.000 -0.0000  1.0000  0.0000
              Bcc     0.0000     0.000     0.000     0.000  0.0000  0.0000  1.0000
 
              Baa     0.0000    -0.000    -0.000    -0.000  1.0000  0.0000  0.0000
     6 O(17)  Bbb     0.0000    -0.000    -0.000    -0.000 -0.0000  1.0000  0.0000
              Bcc     0.0000    -0.000    -0.000    -0.000  0.0000  0.0000  1.0000
 

 ---------------------------------------------------------------------------------

 1\1\GINC-NODE32\SP\UB3LYP\6-31+G(d)\C2H2O2\YANZ\12-Oct-2023\0\\# ub3ly
 p/6-31+g(d)\\tmpdir/M2_ref_24.gjf\\0,1\C,0,0.33039499,0.70663737,-0.01
 689504\C,0,1.51456879,1.42595753,0.00431597\H,0,1.49361496,2.51222136,
 0.0410451\O,0,0.35475864,-0.52915274,-0.05690802\H,0,-0.68507474,1.123
 45238,0.01035115\O,0,2.58961513,0.8255441,-0.01710574\\Version=ES64L-G
 16RevA.03\State=1-A\HF=-227.8071978\S2=0.\S2-1=0.\S2A=0.\RMSD=5.000e-0
 9\Dipole=-0.7867663,1.3089613,0.0457888\Quadrupole=-1.3397594,-0.01502
 48,1.3547842,-1.3508991,-0.043982,-0.044215\PG=C01 [X(C2H2O2)]\\@


 The juvenile sea squirt wanders through the sea searching
 for a suitable rock or hunk of coral to cling to and make
 its home for life.  For this task it has a rudimentary
 nervous system.  When it finds its spot and takes root, it
 doesn't need its brain any more so it eats it.
 It's rather like getting tenure.

                               -- source unknown
 Job cpu time:       0 days  0 hours  0 minutes 26.4 seconds.
 Elapsed time:       0 days  0 hours  0 minutes 13.5 seconds.
 File lengths (MBytes):  RWF=     10 Int=      0 D2E=      0 Chk=      2 Scr=      1
 Normal termination of Gaussian 16 at Thu Oct 12 15:11:40 2023.
