 Entering Gaussian System, Link 0=g16
 Initial command:
 /share/apps/gaussian/g16/l1.exe "/tmp/58286.mgr/Gau-29767.inp" -scrdir="/tmp/58286.mgr/"
 Entering Link 1 = /share/apps/gaussian/g16/l1.exe PID=     29771.
  
 Copyright (c) 1988,1990,1992,1993,1995,1998,2003,2009,2016,
            Gaussian, Inc.  All Rights Reserved.
  
 This is part of the Gaussian(R) 16 program.  It is based on
 the Gaussian(R) 09 system (copyright 2009, Gaussian, Inc.),
 the Gaussian(R) 03 system (copyright 2003, Gaussian, Inc.),
 the Gaussian(R) 98 system (copyright 1998, Gaussian, Inc.),
 the Gaussian(R) 94 system (copyright 1995, Gaussian, Inc.),
 the Gaussian 92(TM) system (copyright 1992, Gaussian, Inc.),
 the Gaussian 90(TM) system (copyright 1990, Gaussian, Inc.),
 the Gaussian 88(TM) system (copyright 1988, Gaussian, Inc.),
 the Gaussian 86(TM) system (copyright 1986, Carnegie Mellon
 University), and the Gaussian 82(TM) system (copyright 1983,
 Carnegie Mellon University). Gaussian is a federally registered
 trademark of Gaussian, Inc.
  
 This software contains proprietary and confidential information,
 including trade secrets, belonging to Gaussian, Inc.
  
 This software is provided under written license and may be
 used, copied, transmitted, or stored only in accord with that
 written license.
  
 The following legend is applicable only to US Government
 contracts under FAR:
  
                    RESTRICTED RIGHTS LEGEND
  
 Use, reproduction and disclosure by the US Government is
 subject to restrictions as set forth in subparagraphs (a)
 and (c) of the Commercial Computer Software - Restricted
 Rights clause in FAR 52.227-19.
  
 Gaussian, Inc.
 340 Quinnipiac St., Bldg. 40, Wallingford CT 06492
  
  
 ---------------------------------------------------------------
 Warning -- This program may not be used in any manner that
 competes with the business of Gaussian, Inc. or will provide
 assistance to any competitor of Gaussian, Inc.  The licensee
 of this program is prohibited from giving any competitor of
 Gaussian, Inc. access to this program.  By using this program,
 the user acknowledges that Gaussian, Inc. is engaged in the
 business of creating and licensing software in the field of
 computational chemistry and represents and warrants to the
 licensee that it is not a competitor of Gaussian, Inc. and that
 it will not use this program in any manner prohibited above.
 ---------------------------------------------------------------
  

 Cite this work as:
 Gaussian 16, Revision A.03,
 M. J. Frisch, G. W. Trucks, H. B. Schlegel, G. E. Scuseria, 
 M. A. Robb, J. R. Cheeseman, G. Scalmani, V. Barone, 
 G. A. Petersson, H. Nakatsuji, X. Li, M. Caricato, A. V. Marenich, 
 J. Bloino, B. G. Janesko, R. Gomperts, B. Mennucci, H. P. Hratchian, 
 J. V. Ortiz, A. F. Izmaylov, J. L. Sonnenberg, D. Williams-Young, 
 F. Ding, F. Lipparini, F. Egidi, J. Goings, B. Peng, A. Petrone, 
 T. Henderson, D. Ranasinghe, V. G. Zakrzewski, J. Gao, N. Rega, 
 G. Zheng, W. Liang, M. Hada, M. Ehara, K. Toyota, R. Fukuda, 
 J. Hasegawa, M. Ishida, T. Nakajima, Y. Honda, O. Kitao, H. Nakai, 
 T. Vreven, K. Throssell, J. A. Montgomery, Jr., J. E. Peralta, 
 F. Ogliaro, M. J. Bearpark, J. J. Heyd, E. N. Brothers, K. N. Kudin, 
 V. N. Staroverov, T. A. Keith, R. Kobayashi, J. Normand, 
 K. Raghavachari, A. P. Rendell, J. C. Burant, S. S. Iyengar, 
 J. Tomasi, M. Cossi, J. M. Millam, M. Klene, C. Adamo, R. Cammi, 
 J. W. Ochterski, R. L. Martin, K. Morokuma, O. Farkas, 
 J. B. Foresman, and D. J. Fox, Gaussian, Inc., Wallingford CT, 2016.
 
 ******************************************
 Gaussian 16:  ES64L-G16RevA.03 25-Dec-2016
                12-Oct-2023 
 ******************************************
 %nprocshared=2
 Will use up to    2 processors via shared memory.
 %mem=2GB
 ------------------
 # ub3lyp/6-31+g(d)
 ------------------
 1/38=1,172=1/1;
 2/12=2,17=6,18=5,40=1/2;
 3/5=1,6=6,7=11,11=2,25=1,30=1,74=-5,116=2/1,2,3;
 4//1;
 5/5=2,38=5/2;
 6/7=2,8=2,9=2,10=2,28=1/1;
 99/5=1,9=1/99;
 -------------------
 tmpdir/M2_ref_3.gjf
 -------------------
 Symbolic Z-matrix:
 Charge =  0 Multiplicity = 1
 C                     1.56914  -1.37271  -0.06898 
 C                     2.76086  -0.64578  -0.05544 
 C                     2.73397   0.74492  -0.01998 
 H                     0.69243  -0.8822   -0.06413 
 H                     1.58782  -2.45944  -0.09246 
 H                     3.71236  -1.16918  -0.07324 
 O                     1.65893   1.34533   0.00144 
 H                     3.66449   1.3048   -0.00921 
 
                          Input orientation:                          
 ---------------------------------------------------------------------
 Center     Atomic      Atomic             Coordinates (Angstroms)
 Number     Number       Type             X           Y           Z
 ---------------------------------------------------------------------
      1          6           0        1.569139   -1.372715   -0.068976
      2          6           0        2.760863   -0.645777   -0.055435
      3          6           0        2.733973    0.744920   -0.019982
      4          1           0        0.692434   -0.882196   -0.064130
      5          1           0        1.587816   -2.459440   -0.092460
      6          1           0        3.712363   -1.169184   -0.073236
      7          8           0        1.658927    1.345334    0.001439
      8          1           0        3.664487    1.304805   -0.009211
 ---------------------------------------------------------------------
                    Distance matrix (angstroms):
                    1          2          3          4          5
     1  C    0.000000
     2  C    1.396005   0.000000
     3  C    2.417358   1.391409   0.000000
     4  H    1.004611   2.081914   2.611003   0.000000
     5  H    1.087139   2.160274   3.403947   1.813894   0.000000
     6  H    2.152871   1.086104   2.150320   3.033548   2.485725
     7  O    2.720443   2.276405   1.231536   2.429052   3.806597
     8  H    3.400466   2.150219   1.086021   3.690404   4.299887
                    6          7          8
     6  H    0.000000
     7  O    3.247303   0.000000
     8  H    2.475280   2.005998   0.000000
 Stoichiometry    C3H4O
 Framework group  C1[X(C3H4O)]
 Deg. of freedom    18
 Full point group                 C1      NOp   1
 Largest Abelian subgroup         C1      NOp   1
 Largest concise Abelian subgroup C1      NOp   1
                         Standard orientation:                         
 ---------------------------------------------------------------------
 Center     Atomic      Atomic             Coordinates (Angstroms)
 Number     Number       Type             X           Y           Z
 ---------------------------------------------------------------------
      1          6           0       -1.422586   -0.472750   -0.000611
      2          6           0       -0.583831    0.643189    0.000151
      3          6           0        0.798216    0.482055    0.000752
      4          1           0       -1.019076   -1.392695    0.010523
      5          1           0       -2.502671   -0.349187   -0.005291
      6          1           0       -1.013168    1.640832    0.000835
      7          8           0        1.292334   -0.646007   -0.001096
      8          1           0        1.445453    1.354137    0.000949
 ---------------------------------------------------------------------
 Rotational constants (GHZ):          21.4182516           6.9047474           5.2214855
 Standard basis: 6-31+G(d) (6D, 7F)
 There are    84 symmetry adapted cartesian basis functions of A   symmetry.
 There are    84 symmetry adapted basis functions of A   symmetry.
    84 basis functions,   144 primitive gaussians,    84 cartesian basis functions
    15 alpha electrons       15 beta electrons
       nuclear repulsion energy       106.2001872214 Hartrees.
 NAtoms=    8 NActive=    8 NUniq=    8 SFac= 1.00D+00 NAtFMM=   60 NAOKFM=F Big=F
 Integral buffers will be    131072 words long.
 Raffenetti 2 integral format.
 Two-electron integral symmetry is turned on.
 One-electron integrals computed using PRISM.
 NBasis=    84 RedAO= T EigKep=  1.27D-04  NBF=    84
 NBsUse=    84 1.00D-06 EigRej= -1.00D+00 NBFU=    84
 ExpMin= 4.38D-02 ExpMax= 5.48D+03 ExpMxC= 8.25D+02 IAcc=3 IRadAn=         5 AccDes= 0.00D+00
 Harris functional with IExCor=  402 and IRadAn=       5 diagonalized for initial guess.
 HarFok:  IExCor=  402 AccDes= 0.00D+00 IRadAn=         5 IDoV= 1 UseB2=F ITyADJ=14
 ICtDFT=  3500011 ScaDFX=  1.000000  1.000000  1.000000  1.000000
 FoFCou: FMM=F IPFlag=           0 FMFlag=      100000 FMFlg1=           0
         NFxFlg=           0 DoJE=T BraDBF=F KetDBF=T FulRan=T
         wScrn=  0.000000 ICntrl=       500 IOpCl=  0 I1Cent=   200000004 NGrid=           0
         NMat0=    1 NMatS0=      1 NMatT0=    0 NMatD0=    1 NMtDS0=    0 NMtDT0=    0
 Petite list used in FoFCou.
 Initial guess <Sx>= 0.0000 <Sy>= 0.0000 <Sz>= 0.0000 <S**2>=-0.0000 S=-0.0000
 Keep R1 and R2 ints in memory in canonical form, NReq=14566444.
 Requested convergence on RMS density matrix=1.00D-08 within 128 cycles.
 Requested convergence on MAX density matrix=1.00D-06.
 Requested convergence on             energy=1.00D-06.
 No special actions if energy rises.
 SCF Done:  E(UB3LYP) =  -191.905435994     A.U. after   12 cycles
            NFock= 12  Conv=0.14D-08     -V/T= 2.0086
 <Sx>= 0.0000 <Sy>= 0.0000 <Sz>= 0.0000 <S**2>=-0.0000 S=-0.0000
 <L.S>= 0.000000000000E+00
 Annihilation of the first spin contaminant:
 S**2 before annihilation    -0.0000,   after     0.0000

 **********************************************************************

            Population analysis using the SCF density.

 **********************************************************************

 Orbital symmetries:
 Alpha Orbitals:
       Occupied  (A) (A) (A) (A) (A) (A) (A) (A) (A) (A) (A) (A)
                 (A) (A) (A)
       Virtual   (A) (A) (A) (A) (A) (A) (A) (A) (A) (A) (A) (A)
                 (A) (A) (A) (A) (A) (A) (A) (A) (A) (A) (A) (A)
                 (A) (A) (A) (A) (A) (A) (A) (A) (A) (A) (A) (A)
                 (A) (A) (A) (A) (A) (A) (A) (A) (A) (A) (A) (A)
                 (A) (A) (A) (A) (A) (A) (A) (A) (A) (A) (A) (A)
                 (A) (A) (A) (A) (A) (A) (A) (A) (A)
 Beta  Orbitals:
       Occupied  (A) (A) (A) (A) (A) (A) (A) (A) (A) (A) (A) (A)
                 (A) (A) (A)
       Virtual   (A) (A) (A) (A) (A) (A) (A) (A) (A) (A) (A) (A)
                 (A) (A) (A) (A) (A) (A) (A) (A) (A) (A) (A) (A)
                 (A) (A) (A) (A) (A) (A) (A) (A) (A) (A) (A) (A)
                 (A) (A) (A) (A) (A) (A) (A) (A) (A) (A) (A) (A)
                 (A) (A) (A) (A) (A) (A) (A) (A) (A) (A) (A) (A)
                 (A) (A) (A) (A) (A) (A) (A) (A) (A)
 The electronic state is 1-A.
 Alpha  occ. eigenvalues --  -19.15265 -10.27721 -10.22798 -10.21784  -1.04526
 Alpha  occ. eigenvalues --   -0.80512  -0.68541  -0.56113  -0.52941  -0.45814
 Alpha  occ. eigenvalues --   -0.43197  -0.40710  -0.40160  -0.28743  -0.26763
 Alpha virt. eigenvalues --   -0.09784   0.00584   0.02237   0.03909   0.04177
 Alpha virt. eigenvalues --    0.06098   0.06220   0.07106   0.09413   0.09513
 Alpha virt. eigenvalues --    0.11698   0.12123   0.14035   0.16153   0.19233
 Alpha virt. eigenvalues --    0.22079   0.24691   0.25882   0.26154   0.27038
 Alpha virt. eigenvalues --    0.28827   0.32743   0.32943   0.41218   0.46243
 Alpha virt. eigenvalues --    0.63085   0.64811   0.67669   0.68180   0.70679
 Alpha virt. eigenvalues --    0.71435   0.76614   0.87565   0.90957   0.92471
 Alpha virt. eigenvalues --    0.95890   1.05155   1.07772   1.10520   1.16390
 Alpha virt. eigenvalues --    1.21790   1.26496   1.28704   1.32437   1.33740
 Alpha virt. eigenvalues --    1.40772   1.54251   1.59769   1.63996   1.78541
 Alpha virt. eigenvalues --    1.82545   1.86322   1.95492   1.96796   2.09128
 Alpha virt. eigenvalues --    2.21521   2.24242   2.31335   2.32572   2.53706
 Alpha virt. eigenvalues --    2.56564   2.61522   2.77886   2.99761   3.12831
 Alpha virt. eigenvalues --    4.11115   4.17912   4.27576   4.42853
  Beta  occ. eigenvalues --  -19.15265 -10.27721 -10.22798 -10.21784  -1.04526
  Beta  occ. eigenvalues --   -0.80512  -0.68541  -0.56113  -0.52941  -0.45814
  Beta  occ. eigenvalues --   -0.43197  -0.40710  -0.40160  -0.28743  -0.26763
  Beta virt. eigenvalues --   -0.09784   0.00584   0.02237   0.03909   0.04177
  Beta virt. eigenvalues --    0.06098   0.06220   0.07106   0.09413   0.09513
  Beta virt. eigenvalues --    0.11698   0.12123   0.14035   0.16153   0.19233
  Beta virt. eigenvalues --    0.22079   0.24691   0.25882   0.26154   0.27038
  Beta virt. eigenvalues --    0.28827   0.32743   0.32943   0.41218   0.46243
  Beta virt. eigenvalues --    0.63085   0.64811   0.67669   0.68180   0.70679
  Beta virt. eigenvalues --    0.71435   0.76614   0.87565   0.90957   0.92471
  Beta virt. eigenvalues --    0.95890   1.05155   1.07772   1.10520   1.16390
  Beta virt. eigenvalues --    1.21790   1.26496   1.28704   1.32437   1.33740
  Beta virt. eigenvalues --    1.40772   1.54251   1.59769   1.63996   1.78541
  Beta virt. eigenvalues --    1.82545   1.86322   1.95492   1.96796   2.09128
  Beta virt. eigenvalues --    2.21521   2.24242   2.31335   2.32572   2.53706
  Beta virt. eigenvalues --    2.56564   2.61522   2.77886   2.99761   3.12831
  Beta virt. eigenvalues --    4.11115   4.17912   4.27576   4.42853
          Condensed to atoms (all electrons):
               1          2          3          4          5          6
     1  C    5.110313   0.433676   0.073506   0.410336   0.356464   0.001735
     2  C    0.433676   5.786825  -0.039399  -0.064525  -0.035561   0.265380
     3  C    0.073506  -0.039399   5.007834  -0.003209   0.017098   0.013928
     4  H    0.410336  -0.064525  -0.003209   0.447030  -0.032510   0.004312
     5  H    0.356464  -0.035561   0.017098  -0.032510   0.495520  -0.004179
     6  H    0.001735   0.265380   0.013928   0.004312  -0.004179   0.522892
     7  O    0.032638  -0.228948   0.480410   0.004068   0.001764   0.006360
     8  H    0.027328  -0.207660   0.455849   0.000080  -0.000068   0.001613
               7          8
     1  C    0.032638   0.027328
     2  C   -0.228948  -0.207660
     3  C    0.480410   0.455849
     4  H    0.004068   0.000080
     5  H    0.001764  -0.000068
     6  H    0.006360   0.001613
     7  O    8.196678  -0.067017
     8  H   -0.067017   0.625969
          Atomic-Atomic Spin Densities.
               1          2          3          4          5          6
     1  C    0.000000  -0.000000  -0.000000   0.000000  -0.000000   0.000000
     2  C   -0.000000  -0.000000   0.000000  -0.000000   0.000000   0.000000
     3  C   -0.000000   0.000000  -0.000000   0.000000  -0.000000  -0.000000
     4  H    0.000000  -0.000000   0.000000   0.000000  -0.000000   0.000000
     5  H   -0.000000   0.000000  -0.000000  -0.000000  -0.000000  -0.000000
     6  H    0.000000   0.000000  -0.000000   0.000000  -0.000000   0.000000
     7  O   -0.000000   0.000000  -0.000000   0.000000   0.000000   0.000000
     8  H    0.000000   0.000000  -0.000000   0.000000   0.000000  -0.000000
               7          8
     1  C   -0.000000   0.000000
     2  C    0.000000   0.000000
     3  C   -0.000000  -0.000000
     4  H    0.000000   0.000000
     5  H    0.000000   0.000000
     6  H    0.000000  -0.000000
     7  O    0.000000  -0.000000
     8  H   -0.000000   0.000000
 Mulliken charges and spin densities:
               1          2
     1  C   -0.445997   0.000000
     2  C    0.090212   0.000000
     3  C   -0.006017  -0.000000
     4  H    0.234419   0.000000
     5  H    0.201470  -0.000000
     6  H    0.187959   0.000000
     7  O   -0.425952  -0.000000
     8  H    0.163905   0.000000
 Sum of Mulliken charges =  -0.00000   0.00000
 Mulliken charges and spin densities with hydrogens summed into heavy atoms:
               1          2
     1  C   -0.010108  -0.000000
     2  C    0.278171   0.000000
     3  C    0.157889  -0.000000
     7  O   -0.425952  -0.000000
 Electronic spatial extent (au):  <R**2>=            256.9038
 Charge=             -0.0000 electrons
 Dipole moment (field-independent basis, Debye):
    X=             -2.3739    Y=              1.8493    Z=              0.0079  Tot=              3.0092
 Quadrupole moment (field-independent basis, Debye-Ang):
   XX=            -24.1789   YY=            -22.6898   ZZ=            -25.2150
   XY=              3.4919   XZ=              0.0075   YZ=             -0.0121
 Traceless Quadrupole moment (field-independent basis, Debye-Ang):
   XX=             -0.1510   YY=              1.3381   ZZ=             -1.1870
   XY=              3.4919   XZ=              0.0075   YZ=             -0.0121
 Octapole moment (field-independent basis, Debye-Ang**2):
  XXX=             -7.0093  YYY=             -0.6131  ZZZ=              0.0032  XYY=             -0.8504
  XXY=              2.7971  XXZ=             -0.0214  XZZ=              3.3488  YZZ=             -1.0914
  YYZ=              0.0314  XYZ=              0.0063
 Hexadecapole moment (field-independent basis, Debye-Ang**3):
 XXXX=           -212.3964 YYYY=            -89.6298 ZZZZ=            -28.4612 XXXY=              6.5487
 XXXZ=              0.0834 YYYX=             -0.4898 YYYZ=             -0.0318 ZZZX=             -0.0040
 ZZZY=             -0.0082 XXYY=            -51.7554 XXZZ=            -43.9203 YYZZ=            -21.1024
 XXYZ=             -0.0102 YYXZ=             -0.0260 ZZXY=             -0.1784
 N-N= 1.062001872214D+02 E-N=-6.596711353440D+02  KE= 1.902653195338D+02
                          Isotropic Fermi Contact Couplings
        Atom                 a.u.       MegaHertz       Gauss      10(-4) cm-1
     1  C(13)              0.00000       0.00000       0.00000       0.00000
     2  C(13)              0.00000       0.00000       0.00000       0.00000
     3  C(13)              0.00000       0.00000       0.00000       0.00000
     4  H(1)               0.00000       0.00000       0.00000       0.00000
     5  H(1)              -0.00000      -0.00000      -0.00000      -0.00000
     6  H(1)               0.00000       0.00000       0.00000       0.00000
     7  O(17)              0.00000      -0.00000      -0.00000      -0.00000
     8  H(1)               0.00000       0.00000       0.00000       0.00000
 --------------------------------------------------------
       Center         ----  Spin Dipole Couplings  ----
                      3XX-RR        3YY-RR        3ZZ-RR
 --------------------------------------------------------
     1   Atom        0.000000      0.000000      0.000000
     2   Atom        0.000000      0.000000      0.000000
     3   Atom        0.000000      0.000000      0.000000
     4   Atom        0.000000      0.000000      0.000000
     5   Atom        0.000000      0.000000      0.000000
     6   Atom        0.000000      0.000000      0.000000
     7   Atom        0.000000      0.000000      0.000000
     8   Atom        0.000000      0.000000      0.000000
 --------------------------------------------------------
                        XY            XZ            YZ
 --------------------------------------------------------
     1   Atom        0.000000      0.000000      0.000000
     2   Atom        0.000000      0.000000      0.000000
     3   Atom        0.000000      0.000000      0.000000
     4   Atom        0.000000      0.000000      0.000000
     5   Atom        0.000000      0.000000      0.000000
     6   Atom        0.000000      0.000000      0.000000
     7   Atom        0.000000      0.000000      0.000000
     8   Atom        0.000000      0.000000      0.000000
 --------------------------------------------------------


 ---------------------------------------------------------------------------------
              Anisotropic Spin Dipole Couplings in Principal Axis System
 ---------------------------------------------------------------------------------

       Atom             a.u.   MegaHertz   Gauss  10(-4) cm-1        Axes

              Baa     0.0000     0.000     0.000     0.000  1.0000  0.0000  0.0000
     1 C(13)  Bbb     0.0000     0.000     0.000     0.000 -0.0000  1.0000  0.0000
              Bcc     0.0000     0.000     0.000     0.000  0.0000  0.0000  1.0000
 
              Baa     0.0000     0.000     0.000     0.000  1.0000  0.0000  0.0000
     2 C(13)  Bbb     0.0000     0.000     0.000     0.000 -0.0000  1.0000  0.0000
              Bcc     0.0000     0.000     0.000     0.000  0.0000  0.0000  1.0000
 
              Baa     0.0000     0.000     0.000     0.000  1.0000  0.0000  0.0000
     3 C(13)  Bbb     0.0000     0.000     0.000     0.000 -0.0000  1.0000  0.0000
              Bcc     0.0000     0.000     0.000     0.000  0.0000  0.0000  1.0000
 
              Baa     0.0000     0.000     0.000     0.000  1.0000  0.0000  0.0000
     4 H(1)   Bbb     0.0000     0.000     0.000     0.000 -0.0000  1.0000  0.0000
              Bcc     0.0000     0.000     0.000     0.000  0.0000  0.0000  1.0000
 
              Baa     0.0000     0.000     0.000     0.000  1.0000  0.0000  0.0000
     5 H(1)   Bbb     0.0000     0.000     0.000     0.000 -0.0000  1.0000  0.0000
              Bcc     0.0000     0.000     0.000     0.000  0.0000  0.0000  1.0000
 
              Baa     0.0000     0.000     0.000     0.000  1.0000  0.0000  0.0000
     6 H(1)   Bbb     0.0000     0.000     0.000     0.000 -0.0000  1.0000  0.0000
              Bcc     0.0000     0.000     0.000     0.000  0.0000  0.0000  1.0000
 
              Baa     0.0000    -0.000    -0.000    -0.000  1.0000  0.0000  0.0000
     7 O(17)  Bbb     0.0000    -0.000    -0.000    -0.000 -0.0000  1.0000  0.0000
              Bcc     0.0000    -0.000    -0.000    -0.000  0.0000  0.0000  1.0000
 
              Baa     0.0000     0.000     0.000     0.000  1.0000  0.0000  0.0000
     8 H(1)   Bbb     0.0000     0.000     0.000     0.000 -0.0000  1.0000  0.0000
              Bcc     0.0000     0.000     0.000     0.000  0.0000  0.0000  1.0000
 

 ---------------------------------------------------------------------------------

 1\1\GINC-NODE32\SP\UB3LYP\6-31+G(d)\C3H4O1\YANZ\12-Oct-2023\0\\# ub3ly
 p/6-31+g(d)\\tmpdir/M2_ref_3.gjf\\0,1\C,0,1.5691386,-1.37271489,-0.068
 97614\C,0,2.76086323,-0.64577722,-0.05543502\C,0,2.73397309,0.74492017
 ,-0.01998226\H,0,0.69243419,-0.88219569,-0.06412961\H,0,1.58781592,-2.
 45944017,-0.09245997\H,0,3.71236256,-1.16918432,-0.07323601\O,0,1.6589
 2675,1.3453336,0.00143945\H,0,3.66448683,1.30480451,-0.00921086\\Versi
 on=ES64L-G16RevA.03\State=1-A\HF=-191.905436\S2=0.\S2-1=0.\S2A=0.\RMSD
 =1.374e-09\Dipole=0.633939,-0.999409,-0.0313387\Quadrupole=1.4837106,-
 0.6005205,-0.8831901,2.4404187,0.0625737,-0.0083081\PG=C01 [X(C3H4O1)]
 \\@


 IF YOU GIVE A BOY AND A PIG EVERYTHING THEY WANT,
 YOU'LL GET A BAD BOY AND A GOOD PIG.
 Job cpu time:       0 days  0 hours  0 minutes 38.6 seconds.
 Elapsed time:       0 days  0 hours  0 minutes 19.9 seconds.
 File lengths (MBytes):  RWF=     10 Int=      0 D2E=      0 Chk=      2 Scr=      1
 Normal termination of Gaussian 16 at Thu Oct 12 15:11:20 2023.
