 Entering Gaussian System, Link 0=g16
 Initial command:
 /share/apps/gaussian/g16/l1.exe "/tmp/58286.mgr/Gau-30070.inp" -scrdir="/tmp/58286.mgr/"
 Entering Link 1 = /share/apps/gaussian/g16/l1.exe PID=     30071.
  
 Copyright (c) 1988,1990,1992,1993,1995,1998,2003,2009,2016,
            Gaussian, Inc.  All Rights Reserved.
  
 This is part of the Gaussian(R) 16 program.  It is based on
 the Gaussian(R) 09 system (copyright 2009, Gaussian, Inc.),
 the Gaussian(R) 03 system (copyright 2003, Gaussian, Inc.),
 the Gaussian(R) 98 system (copyright 1998, Gaussian, Inc.),
 the Gaussian(R) 94 system (copyright 1995, Gaussian, Inc.),
 the Gaussian 92(TM) system (copyright 1992, Gaussian, Inc.),
 the Gaussian 90(TM) system (copyright 1990, Gaussian, Inc.),
 the Gaussian 88(TM) system (copyright 1988, Gaussian, Inc.),
 the Gaussian 86(TM) system (copyright 1986, Carnegie Mellon
 University), and the Gaussian 82(TM) system (copyright 1983,
 Carnegie Mellon University). Gaussian is a federally registered
 trademark of Gaussian, Inc.
  
 This software contains proprietary and confidential information,
 including trade secrets, belonging to Gaussian, Inc.
  
 This software is provided under written license and may be
 used, copied, transmitted, or stored only in accord with that
 written license.
  
 The following legend is applicable only to US Government
 contracts under FAR:
  
                    RESTRICTED RIGHTS LEGEND
  
 Use, reproduction and disclosure by the US Government is
 subject to restrictions as set forth in subparagraphs (a)
 and (c) of the Commercial Computer Software - Restricted
 Rights clause in FAR 52.227-19.
  
 Gaussian, Inc.
 340 Quinnipiac St., Bldg. 40, Wallingford CT 06492
  
  
 ---------------------------------------------------------------
 Warning -- This program may not be used in any manner that
 competes with the business of Gaussian, Inc. or will provide
 assistance to any competitor of Gaussian, Inc.  The licensee
 of this program is prohibited from giving any competitor of
 Gaussian, Inc. access to this program.  By using this program,
 the user acknowledges that Gaussian, Inc. is engaged in the
 business of creating and licensing software in the field of
 computational chemistry and represents and warrants to the
 licensee that it is not a competitor of Gaussian, Inc. and that
 it will not use this program in any manner prohibited above.
 ---------------------------------------------------------------
  

 Cite this work as:
 Gaussian 16, Revision A.03,
 M. J. Frisch, G. W. Trucks, H. B. Schlegel, G. E. Scuseria, 
 M. A. Robb, J. R. Cheeseman, G. Scalmani, V. Barone, 
 G. A. Petersson, H. Nakatsuji, X. Li, M. Caricato, A. V. Marenich, 
 J. Bloino, B. G. Janesko, R. Gomperts, B. Mennucci, H. P. Hratchian, 
 J. V. Ortiz, A. F. Izmaylov, J. L. Sonnenberg, D. Williams-Young, 
 F. Ding, F. Lipparini, F. Egidi, J. Goings, B. Peng, A. Petrone, 
 T. Henderson, D. Ranasinghe, V. G. Zakrzewski, J. Gao, N. Rega, 
 G. Zheng, W. Liang, M. Hada, M. Ehara, K. Toyota, R. Fukuda, 
 J. Hasegawa, M. Ishida, T. Nakajima, Y. Honda, O. Kitao, H. Nakai, 
 T. Vreven, K. Throssell, J. A. Montgomery, Jr., J. E. Peralta, 
 F. Ogliaro, M. J. Bearpark, J. J. Heyd, E. N. Brothers, K. N. Kudin, 
 V. N. Staroverov, T. A. Keith, R. Kobayashi, J. Normand, 
 K. Raghavachari, A. P. Rendell, J. C. Burant, S. S. Iyengar, 
 J. Tomasi, M. Cossi, J. M. Millam, M. Klene, C. Adamo, R. Cammi, 
 J. W. Ochterski, R. L. Martin, K. Morokuma, O. Farkas, 
 J. B. Foresman, and D. J. Fox, Gaussian, Inc., Wallingford CT, 2016.
 
 ******************************************
 Gaussian 16:  ES64L-G16RevA.03 25-Dec-2016
                12-Oct-2023 
 ******************************************
 %nprocshared=2
 Will use up to    2 processors via shared memory.
 %mem=2GB
 ------------------
 # ub3lyp/6-31+g(d)
 ------------------
 1/38=1,172=1/1;
 2/12=2,17=6,18=5,40=1/2;
 3/5=1,6=6,7=11,11=2,25=1,30=1,74=-5,116=2/1,2,3;
 4//1;
 5/5=2,38=5/2;
 6/7=2,8=2,9=2,10=2,28=1/1;
 99/5=1,9=1/99;
 --------------------
 tmpdir/M2_ref_17.gjf
 --------------------
 Symbolic Z-matrix:
 Charge =  0 Multiplicity = 1
 C                     0.33039   0.70664  -0.0169 
 C                    -1.07241   1.28244   0.02074 
 O                     0.35476  -0.52915  -0.05691 
 H                     1.1876    1.22734  -0.00154 
 H                    -1.60206   0.84923   0.89071 
 H                    -1.08735   2.3742    0.0001 
 H                    -1.65168   0.8275   -0.80422 
 
                          Input orientation:                          
 ---------------------------------------------------------------------
 Center     Atomic      Atomic             Coordinates (Angstroms)
 Number     Number       Type             X           Y           Z
 ---------------------------------------------------------------------
      1          6           0        0.330395    0.706637   -0.016895
      2          6           0       -1.072408    1.282439    0.020744
      3          8           0        0.354759   -0.529153   -0.056908
      4          1           0        1.187602    1.227343   -0.001541
      5          1           0       -1.602059    0.849227    0.890705
      6          1           0       -1.087345    2.374200    0.000102
      7          1           0       -1.651680    0.827496   -0.804224
 ---------------------------------------------------------------------
                    Distance matrix (angstroms):
                    1          2          3          4          5
     1  C    0.000000
     2  C    1.516846   0.000000
     3  O    1.236678   2.307531   0.000000
     4  H    1.003082   2.260792   1.944729   0.000000
     5  H    2.139731   1.106814   2.574304   2.953182   0.000000
     6  H    2.188845   1.092058   3.242279   2.547679   1.839470
     7  H    2.136145   1.105939   2.534714   2.977533   1.695795
                    6          7
     6  H    0.000000
     7  H    1.832405   0.000000
 Stoichiometry    C2H4O
 Framework group  C1[X(C2H4O)]
 Deg. of freedom    15
 Full point group                 C1      NOp   1
 Largest Abelian subgroup         C1      NOp   1
 Largest concise Abelian subgroup C1      NOp   1
                         Standard orientation:                         
 ---------------------------------------------------------------------
 Center     Atomic      Atomic             Coordinates (Angstroms)
 Number     Number       Type             X           Y           Z
 ---------------------------------------------------------------------
      1          6           0        0.242214    0.498718    0.000046
      2          6           0       -1.139551   -0.127018   -0.000156
      3          8           0        1.158914   -0.331360   -0.001560
      4          1           0        0.450776    1.479810    0.011645
      5          1           0       -1.215686   -0.800260    0.875049
      6          1           0       -1.943091    0.610512   -0.054602
      7          1           0       -1.179288   -0.869384   -0.818945
 ---------------------------------------------------------------------
 Rotational constants (GHZ):          49.0013995          11.0243804           9.4899877
 Standard basis: 6-31+G(d) (6D, 7F)
 There are    65 symmetry adapted cartesian basis functions of A   symmetry.
 There are    65 symmetry adapted basis functions of A   symmetry.
    65 basis functions,   112 primitive gaussians,    65 cartesian basis functions
    12 alpha electrons       12 beta electrons
       nuclear repulsion energy        69.9940062011 Hartrees.
 NAtoms=    7 NActive=    7 NUniq=    7 SFac= 1.00D+00 NAtFMM=   60 NAOKFM=F Big=F
 Integral buffers will be    131072 words long.
 Raffenetti 2 integral format.
 Two-electron integral symmetry is turned on.
 One-electron integrals computed using PRISM.
 NBasis=    65 RedAO= T EigKep=  3.29D-04  NBF=    65
 NBsUse=    65 1.00D-06 EigRej= -1.00D+00 NBFU=    65
 ExpMin= 4.38D-02 ExpMax= 5.48D+03 ExpMxC= 8.25D+02 IAcc=3 IRadAn=         5 AccDes= 0.00D+00
 Harris functional with IExCor=  402 and IRadAn=       5 diagonalized for initial guess.
 HarFok:  IExCor=  402 AccDes= 0.00D+00 IRadAn=         5 IDoV= 1 UseB2=F ITyADJ=14
 ICtDFT=  3500011 ScaDFX=  1.000000  1.000000  1.000000  1.000000
 FoFCou: FMM=F IPFlag=           0 FMFlag=      100000 FMFlg1=           0
         NFxFlg=           0 DoJE=T BraDBF=F KetDBF=T FulRan=T
         wScrn=  0.000000 ICntrl=       500 IOpCl=  0 I1Cent=   200000004 NGrid=           0
         NMat0=    1 NMatS0=      1 NMatT0=    0 NMatD0=    1 NMtDS0=    0 NMtDT0=    0
 Petite list used in FoFCou.
 Initial guess <Sx>= 0.0000 <Sy>= 0.0000 <Sz>= 0.0000 <S**2>=-0.0000 S=-0.0000
 Keep R1 and R2 ints in memory in canonical form, NReq=6379691.
 Requested convergence on RMS density matrix=1.00D-08 within 128 cycles.
 Requested convergence on MAX density matrix=1.00D-06.
 Requested convergence on             energy=1.00D-06.
 No special actions if energy rises.
 SCF Done:  E(UB3LYP) =  -153.823169339     A.U. after   11 cycles
            NFock= 11  Conv=0.22D-08     -V/T= 2.0091
 <Sx>= 0.0000 <Sy>= 0.0000 <Sz>= 0.0000 <S**2>= 0.0000 S= 0.0000
 <L.S>= 0.000000000000E+00
 Annihilation of the first spin contaminant:
 S**2 before annihilation    -0.0000,   after     0.0000

 **********************************************************************

            Population analysis using the SCF density.

 **********************************************************************

 Orbital symmetries:
 Alpha Orbitals:
       Occupied  (A) (A) (A) (A) (A) (A) (A) (A) (A) (A) (A) (A)
       Virtual   (A) (A) (A) (A) (A) (A) (A) (A) (A) (A) (A) (A)
                 (A) (A) (A) (A) (A) (A) (A) (A) (A) (A) (A) (A)
                 (A) (A) (A) (A) (A) (A) (A) (A) (A) (A) (A) (A)
                 (A) (A) (A) (A) (A) (A) (A) (A) (A) (A) (A) (A)
                 (A) (A) (A) (A) (A)
 Beta  Orbitals:
       Occupied  (A) (A) (A) (A) (A) (A) (A) (A) (A) (A) (A) (A)
       Virtual   (A) (A) (A) (A) (A) (A) (A) (A) (A) (A) (A) (A)
                 (A) (A) (A) (A) (A) (A) (A) (A) (A) (A) (A) (A)
                 (A) (A) (A) (A) (A) (A) (A) (A) (A) (A) (A) (A)
                 (A) (A) (A) (A) (A) (A) (A) (A) (A) (A) (A) (A)
                 (A) (A) (A) (A) (A)
 The electronic state is 1-A.
 Alpha  occ. eigenvalues --  -19.15985 -10.28563 -10.20466  -1.04641  -0.75218
 Alpha  occ. eigenvalues --   -0.62019  -0.48747  -0.44229  -0.44012  -0.41480
 Alpha  occ. eigenvalues --   -0.35701  -0.26587
 Alpha virt. eigenvalues --   -0.05280   0.01050   0.02528   0.04784   0.05080
 Alpha virt. eigenvalues --    0.07438   0.07645   0.09410   0.14111   0.17003
 Alpha virt. eigenvalues --    0.17236   0.20461   0.23989   0.24916   0.26197
 Alpha virt. eigenvalues --    0.28529   0.29453   0.33136   0.38210   0.63495
 Alpha virt. eigenvalues --    0.64167   0.67549   0.67757   0.72886   0.75434
 Alpha virt. eigenvalues --    0.88751   0.95464   1.01718   1.05131   1.08089
 Alpha virt. eigenvalues --    1.17181   1.20240   1.24064   1.31898   1.38436
 Alpha virt. eigenvalues --    1.49991   1.54528   1.72747   1.79921   1.81138
 Alpha virt. eigenvalues --    1.89701   2.07643   2.13854   2.20717   2.25038
 Alpha virt. eigenvalues --    2.29113   2.54927   2.60508   2.83007   2.97798
 Alpha virt. eigenvalues --    4.09615   4.17072   4.38959
  Beta  occ. eigenvalues --  -19.15985 -10.28563 -10.20466  -1.04641  -0.75218
  Beta  occ. eigenvalues --   -0.62019  -0.48747  -0.44229  -0.44012  -0.41480
  Beta  occ. eigenvalues --   -0.35701  -0.26587
  Beta virt. eigenvalues --   -0.05280   0.01050   0.02528   0.04784   0.05080
  Beta virt. eigenvalues --    0.07438   0.07645   0.09410   0.14111   0.17003
  Beta virt. eigenvalues --    0.17236   0.20461   0.23989   0.24916   0.26197
  Beta virt. eigenvalues --    0.28529   0.29453   0.33136   0.38210   0.63495
  Beta virt. eigenvalues --    0.64167   0.67549   0.67757   0.72886   0.75434
  Beta virt. eigenvalues --    0.88751   0.95464   1.01718   1.05131   1.08089
  Beta virt. eigenvalues --    1.17181   1.20240   1.24064   1.31898   1.38436
  Beta virt. eigenvalues --    1.49991   1.54528   1.72747   1.79921   1.81138
  Beta virt. eigenvalues --    1.89701   2.07643   2.13854   2.20717   2.25038
  Beta virt. eigenvalues --    2.29113   2.54927   2.60508   2.83007   2.97798
  Beta virt. eigenvalues --    4.09615   4.17072   4.38959
          Condensed to atoms (all electrons):
               1          2          3          4          5          6
     1  C    4.840594   0.175715   0.451817   0.390069  -0.031095  -0.039249
     2  C    0.175715   5.673844  -0.143241  -0.109590   0.382766   0.359959
     3  O    0.451817  -0.143241   8.146899  -0.063383  -0.010275   0.009402
     4  H    0.390069  -0.109590  -0.063383   0.595704   0.001826   0.005042
     5  H   -0.031095   0.382766  -0.010275   0.001826   0.465409  -0.021720
     6  H   -0.039249   0.359959   0.009402   0.005042  -0.021720   0.511534
     7  H   -0.034874   0.386914  -0.010120   0.001998  -0.028702  -0.022382
               7
     1  C   -0.034874
     2  C    0.386914
     3  O   -0.010120
     4  H    0.001998
     5  H   -0.028702
     6  H   -0.022382
     7  H    0.464263
          Atomic-Atomic Spin Densities.
               1          2          3          4          5          6
     1  C   -0.000000   0.000000   0.000000   0.000000   0.000000   0.000000
     2  C    0.000000  -0.000000  -0.000000  -0.000000  -0.000000  -0.000000
     3  O    0.000000  -0.000000  -0.000000  -0.000000  -0.000000  -0.000000
     4  H    0.000000  -0.000000  -0.000000  -0.000000  -0.000000   0.000000
     5  H    0.000000  -0.000000  -0.000000  -0.000000   0.000000   0.000000
     6  H    0.000000  -0.000000  -0.000000   0.000000   0.000000  -0.000000
     7  H    0.000000  -0.000000  -0.000000  -0.000000  -0.000000   0.000000
               7
     1  C    0.000000
     2  C   -0.000000
     3  O   -0.000000
     4  H   -0.000000
     5  H   -0.000000
     6  H    0.000000
     7  H   -0.000000
 Mulliken charges and spin densities:
               1          2
     1  C    0.247023   0.000000
     2  C   -0.726366   0.000000
     3  O   -0.381098   0.000000
     4  H    0.178334  -0.000000
     5  H    0.241790  -0.000000
     6  H    0.197414  -0.000000
     7  H    0.242903  -0.000000
 Sum of Mulliken charges =  -0.00000   0.00000
 Mulliken charges and spin densities with hydrogens summed into heavy atoms:
               1          2
     1  C    0.425357   0.000000
     2  C   -0.044259  -0.000000
     3  O   -0.381098   0.000000
 Electronic spatial extent (au):  <R**2>=            162.6396
 Charge=             -0.0000 electrons
 Dipole moment (field-independent basis, Debye):
    X=             -2.4004    Y=              1.4947    Z=              0.0160  Tot=              2.8278
 Quadrupole moment (field-independent basis, Debye-Ang):
   XX=            -21.7101   YY=            -17.4176   ZZ=            -18.2337
   XY=              1.7071   XZ=              0.0059   YZ=             -0.0293
 Traceless Quadrupole moment (field-independent basis, Debye-Ang):
   XX=             -2.5896   YY=              1.7029   ZZ=              0.8867
   XY=              1.7071   XZ=              0.0059   YZ=             -0.0293
 Octapole moment (field-independent basis, Debye-Ang**2):
  XXX=             -1.2789  YYY=              1.3912  ZZZ=              0.1042  XYY=              0.5561
  XXY=              1.1956  XXZ=             -0.0393  XZZ=              1.1870  YZZ=             -0.8832
  YYZ=             -0.0408  XYZ=              0.0821
 Hexadecapole moment (field-independent basis, Debye-Ang**3):
 XXXX=           -149.0139 YYYY=            -45.4927 ZZZZ=            -24.6231 XXXY=             -1.5465
 XXXZ=              0.1555 YYYX=              1.3113 YYYZ=              0.0875 ZZZX=             -0.1411
 ZZZY=             -0.0897 XXYY=            -29.8316 XXZZ=            -28.0025 YYZZ=            -11.1984
 XXYZ=             -0.1762 YYXZ=              0.0814 ZZXY=              0.7788
 N-N= 6.999400620111D+01 E-N=-4.989839850351D+02  KE= 1.524420457585D+02
                          Isotropic Fermi Contact Couplings
        Atom                 a.u.       MegaHertz       Gauss      10(-4) cm-1
     1  C(13)              0.00000       0.00000       0.00000       0.00000
     2  C(13)              0.00000       0.00000       0.00000       0.00000
     3  O(17)              0.00000      -0.00000      -0.00000      -0.00000
     4  H(1)               0.00000       0.00000       0.00000       0.00000
     5  H(1)              -0.00000      -0.00000      -0.00000      -0.00000
     6  H(1)              -0.00000      -0.00000      -0.00000      -0.00000
     7  H(1)               0.00000       0.00000       0.00000       0.00000
 --------------------------------------------------------
       Center         ----  Spin Dipole Couplings  ----
                      3XX-RR        3YY-RR        3ZZ-RR
 --------------------------------------------------------
     1   Atom        0.000000      0.000000      0.000000
     2   Atom        0.000000      0.000000      0.000000
     3   Atom        0.000000      0.000000      0.000000
     4   Atom        0.000000      0.000000      0.000000
     5   Atom        0.000000      0.000000      0.000000
     6   Atom        0.000000      0.000000      0.000000
     7   Atom        0.000000      0.000000      0.000000
 --------------------------------------------------------
                        XY            XZ            YZ
 --------------------------------------------------------
     1   Atom        0.000000      0.000000      0.000000
     2   Atom        0.000000      0.000000      0.000000
     3   Atom        0.000000      0.000000      0.000000
     4   Atom        0.000000      0.000000      0.000000
     5   Atom        0.000000      0.000000      0.000000
     6   Atom        0.000000      0.000000      0.000000
     7   Atom        0.000000      0.000000      0.000000
 --------------------------------------------------------


 ---------------------------------------------------------------------------------
              Anisotropic Spin Dipole Couplings in Principal Axis System
 ---------------------------------------------------------------------------------

       Atom             a.u.   MegaHertz   Gauss  10(-4) cm-1        Axes

              Baa     0.0000     0.000     0.000     0.000  1.0000  0.0000  0.0000
     1 C(13)  Bbb     0.0000     0.000     0.000     0.000 -0.0000  1.0000  0.0000
              Bcc     0.0000     0.000     0.000     0.000  0.0000  0.0000  1.0000
 
              Baa     0.0000     0.000     0.000     0.000  1.0000  0.0000  0.0000
     2 C(13)  Bbb     0.0000     0.000     0.000     0.000 -0.0000  1.0000  0.0000
              Bcc     0.0000     0.000     0.000     0.000  0.0000  0.0000  1.0000
 
              Baa     0.0000    -0.000    -0.000    -0.000  1.0000  0.0000  0.0000
     3 O(17)  Bbb     0.0000    -0.000    -0.000    -0.000 -0.0000  1.0000  0.0000
              Bcc     0.0000    -0.000    -0.000    -0.000  0.0000  0.0000  1.0000
 
              Baa     0.0000     0.000     0.000     0.000  1.0000  0.0000  0.0000
     4 H(1)   Bbb     0.0000     0.000     0.000     0.000 -0.0000  1.0000  0.0000
              Bcc     0.0000     0.000     0.000     0.000  0.0000  0.0000  1.0000
 
              Baa     0.0000     0.000     0.000     0.000  1.0000  0.0000  0.0000
     5 H(1)   Bbb     0.0000     0.000     0.000     0.000 -0.0000  1.0000  0.0000
              Bcc     0.0000     0.000     0.000     0.000  0.0000  0.0000  1.0000
 
              Baa     0.0000     0.000     0.000     0.000  1.0000  0.0000  0.0000
     6 H(1)   Bbb     0.0000     0.000     0.000     0.000 -0.0000  1.0000  0.0000
              Bcc     0.0000     0.000     0.000     0.000  0.0000  0.0000  1.0000
 
              Baa     0.0000     0.000     0.000     0.000  1.0000  0.0000  0.0000
     7 H(1)   Bbb     0.0000     0.000     0.000     0.000 -0.0000  1.0000  0.0000
              Bcc     0.0000     0.000     0.000     0.000  0.0000  0.0000  1.0000
 

 ---------------------------------------------------------------------------------

 1\1\GINC-NODE32\SP\UB3LYP\6-31+G(d)\C2H4O1\YANZ\12-Oct-2023\0\\# ub3ly
 p/6-31+g(d)\\tmpdir/M2_ref_17.gjf\\0,1\C,0,0.33039499,0.70663737,-0.01
 689504\C,0,-1.07240839,1.28243937,0.02074375\O,0,0.35475864,-0.5291527
 4,-0.05690802\H,0,1.18760183,1.22734316,-0.00154069\H,0,-1.60205949,0.
 84922693,0.89070546\H,0,-1.08734547,2.3742003,0.00010213\H,0,-1.651680
 46,0.82749647,-0.80422442\\Version=ES64L-G16RevA.03\State=1-A\HF=-153.
 8231693\S2=0.\S2-1=0.\S2A=0.\RMSD=2.205e-09\Dipole=-0.2194021,1.089827
 7,0.0430116\Quadrupole=1.0319526,-1.6869932,0.6550406,1.5166012,0.0284
 624,-0.1121327\PG=C01 [X(C2H4O1)]\\@


 We're simply so accustomed to the marvels of everyday thought
 that we never wonder about it.
 -- Marvin Minsky in "Why people think computers are smart"
 Job cpu time:       0 days  0 hours  0 minutes 21.8 seconds.
 Elapsed time:       0 days  0 hours  0 minutes 11.1 seconds.
 File lengths (MBytes):  RWF=      6 Int=      0 D2E=      0 Chk=      1 Scr=      1
 Normal termination of Gaussian 16 at Thu Oct 12 15:11:43 2023.
