 Entering Gaussian System, Link 0=g16
 Initial command:
 /share/apps/gaussian/g16/l1.exe "/tmp/58286.mgr/Gau-29766.inp" -scrdir="/tmp/58286.mgr/"
 Entering Link 1 = /share/apps/gaussian/g16/l1.exe PID=     29770.
  
 Copyright (c) 1988,1990,1992,1993,1995,1998,2003,2009,2016,
            Gaussian, Inc.  All Rights Reserved.
  
 This is part of the Gaussian(R) 16 program.  It is based on
 the Gaussian(R) 09 system (copyright 2009, Gaussian, Inc.),
 the Gaussian(R) 03 system (copyright 2003, Gaussian, Inc.),
 the Gaussian(R) 98 system (copyright 1998, Gaussian, Inc.),
 the Gaussian(R) 94 system (copyright 1995, Gaussian, Inc.),
 the Gaussian 92(TM) system (copyright 1992, Gaussian, Inc.),
 the Gaussian 90(TM) system (copyright 1990, Gaussian, Inc.),
 the Gaussian 88(TM) system (copyright 1988, Gaussian, Inc.),
 the Gaussian 86(TM) system (copyright 1986, Carnegie Mellon
 University), and the Gaussian 82(TM) system (copyright 1983,
 Carnegie Mellon University). Gaussian is a federally registered
 trademark of Gaussian, Inc.
  
 This software contains proprietary and confidential information,
 including trade secrets, belonging to Gaussian, Inc.
  
 This software is provided under written license and may be
 used, copied, transmitted, or stored only in accord with that
 written license.
  
 The following legend is applicable only to US Government
 contracts under FAR:
  
                    RESTRICTED RIGHTS LEGEND
  
 Use, reproduction and disclosure by the US Government is
 subject to restrictions as set forth in subparagraphs (a)
 and (c) of the Commercial Computer Software - Restricted
 Rights clause in FAR 52.227-19.
  
 Gaussian, Inc.
 340 Quinnipiac St., Bldg. 40, Wallingford CT 06492
  
  
 ---------------------------------------------------------------
 Warning -- This program may not be used in any manner that
 competes with the business of Gaussian, Inc. or will provide
 assistance to any competitor of Gaussian, Inc.  The licensee
 of this program is prohibited from giving any competitor of
 Gaussian, Inc. access to this program.  By using this program,
 the user acknowledges that Gaussian, Inc. is engaged in the
 business of creating and licensing software in the field of
 computational chemistry and represents and warrants to the
 licensee that it is not a competitor of Gaussian, Inc. and that
 it will not use this program in any manner prohibited above.
 ---------------------------------------------------------------
  

 Cite this work as:
 Gaussian 16, Revision A.03,
 M. J. Frisch, G. W. Trucks, H. B. Schlegel, G. E. Scuseria, 
 M. A. Robb, J. R. Cheeseman, G. Scalmani, V. Barone, 
 G. A. Petersson, H. Nakatsuji, X. Li, M. Caricato, A. V. Marenich, 
 J. Bloino, B. G. Janesko, R. Gomperts, B. Mennucci, H. P. Hratchian, 
 J. V. Ortiz, A. F. Izmaylov, J. L. Sonnenberg, D. Williams-Young, 
 F. Ding, F. Lipparini, F. Egidi, J. Goings, B. Peng, A. Petrone, 
 T. Henderson, D. Ranasinghe, V. G. Zakrzewski, J. Gao, N. Rega, 
 G. Zheng, W. Liang, M. Hada, M. Ehara, K. Toyota, R. Fukuda, 
 J. Hasegawa, M. Ishida, T. Nakajima, Y. Honda, O. Kitao, H. Nakai, 
 T. Vreven, K. Throssell, J. A. Montgomery, Jr., J. E. Peralta, 
 F. Ogliaro, M. J. Bearpark, J. J. Heyd, E. N. Brothers, K. N. Kudin, 
 V. N. Staroverov, T. A. Keith, R. Kobayashi, J. Normand, 
 K. Raghavachari, A. P. Rendell, J. C. Burant, S. S. Iyengar, 
 J. Tomasi, M. Cossi, J. M. Millam, M. Klene, C. Adamo, R. Cammi, 
 J. W. Ochterski, R. L. Martin, K. Morokuma, O. Farkas, 
 J. B. Foresman, and D. J. Fox, Gaussian, Inc., Wallingford CT, 2016.
 
 ******************************************
 Gaussian 16:  ES64L-G16RevA.03 25-Dec-2016
                12-Oct-2023 
 ******************************************
 %nprocshared=2
 Will use up to    2 processors via shared memory.
 %mem=2GB
 ------------------
 # ub3lyp/6-31+g(d)
 ------------------
 1/38=1,172=1/1;
 2/12=2,17=6,18=5,40=1/2;
 3/5=1,6=6,7=11,11=2,25=1,30=1,74=-5,116=2/1,2,3;
 4//1;
 5/5=2,38=5/2;
 6/7=2,8=2,9=2,10=2,28=1/1;
 99/5=1,9=1/99;
 -------------------
 tmpdir/M2_ref_6.gjf
 -------------------
 Symbolic Z-matrix:
 Charge =  0 Multiplicity = 1
 C                     1.56914  -1.37271  -0.06898 
 C                     0.35803  -0.6951   -0.06228 
 C                     2.76086  -0.64578  -0.05544 
 H                     1.58782  -2.45944  -0.09246 
 C                     0.33039   0.70664  -0.0169 
 H                    -0.64899  -1.14631  -0.03801 
 
                          Input orientation:                          
 ---------------------------------------------------------------------
 Center     Atomic      Atomic             Coordinates (Angstroms)
 Number     Number       Type             X           Y           Z
 ---------------------------------------------------------------------
      1          6           0        1.569139   -1.372715   -0.068976
      2          6           0        0.358030   -0.695095   -0.062281
      3          6           0        2.760863   -0.645777   -0.055435
      4          1           0        1.587816   -2.459440   -0.092460
      5          6           0        0.330395    0.706637   -0.016895
      6          1           0       -0.648988   -1.146310   -0.038009
 ---------------------------------------------------------------------
                    Distance matrix (angstroms):
                    1          2          3          4          5
     1  C    0.000000
     2  C    1.387803   0.000000
     3  C    1.396005   2.403349   0.000000
     4  H    1.087139   2.150859   2.160274   0.000000
     5  C    2.420930   1.402740   2.781670   3.407472   0.000000
     6  H    2.229866   1.103752   3.446436   2.594334   2.095960
                    6
     6  H    0.000000
 Stoichiometry    C4H2
 Framework group  C1[X(C4H2)]
 Deg. of freedom    12
 Full point group                 C1      NOp   1
 Largest Abelian subgroup         C1      NOp   1
 Largest concise Abelian subgroup C1      NOp   1
                         Standard orientation:                         
 ---------------------------------------------------------------------
 Center     Atomic      Atomic             Coordinates (Angstroms)
 Number     Number       Type             X           Y           Z
 ---------------------------------------------------------------------
      1          6           0       -0.702858    0.491040    0.001764
      2          6           0        0.684896    0.488695   -0.009621
      3          6           0       -1.389936   -0.724177    0.000455
      4          1           0       -1.248298    1.431446    0.003769
      5          6           0        1.391733   -0.722876    0.002878
      6          1           0        1.345291    1.372469    0.023372
 ---------------------------------------------------------------------
 Rotational constants (GHZ):          22.8331874           8.2337097           6.0517658
 Standard basis: 6-31+G(d) (6D, 7F)
 There are    80 symmetry adapted cartesian basis functions of A   symmetry.
 There are    80 symmetry adapted basis functions of A   symmetry.
    80 basis functions,   136 primitive gaussians,    80 cartesian basis functions
    13 alpha electrons       13 beta electrons
       nuclear repulsion energy        77.3372428778 Hartrees.
 NAtoms=    6 NActive=    6 NUniq=    6 SFac= 1.00D+00 NAtFMM=   60 NAOKFM=F Big=F
 Integral buffers will be    131072 words long.
 Raffenetti 2 integral format.
 Two-electron integral symmetry is turned on.
 One-electron integrals computed using PRISM.
 NBasis=    80 RedAO= T EigKep=  4.31D-05  NBF=    80
 NBsUse=    80 1.00D-06 EigRej= -1.00D+00 NBFU=    80
 ExpMin= 4.38D-02 ExpMax= 3.05D+03 ExpMxC= 4.57D+02 IAcc=3 IRadAn=         5 AccDes= 0.00D+00
 Harris functional with IExCor=  402 and IRadAn=       5 diagonalized for initial guess.
 HarFok:  IExCor=  402 AccDes= 0.00D+00 IRadAn=         5 IDoV= 1 UseB2=F ITyADJ=14
 ICtDFT=  3500011 ScaDFX=  1.000000  1.000000  1.000000  1.000000
 FoFCou: FMM=F IPFlag=           0 FMFlag=      100000 FMFlg1=           0
         NFxFlg=           0 DoJE=T BraDBF=F KetDBF=T FulRan=T
         wScrn=  0.000000 ICntrl=       500 IOpCl=  0 I1Cent=   200000004 NGrid=           0
         NMat0=    1 NMatS0=      1 NMatT0=    0 NMatD0=    1 NMtDS0=    0 NMtDT0=    0
 Petite list used in FoFCou.
 Initial guess <Sx>= 0.0000 <Sy>= 0.0000 <Sz>= 0.0000 <S**2>=-0.0000 S=-0.0000
 Keep R1 and R2 ints in memory in canonical form, NReq=12310292.
 Requested convergence on RMS density matrix=1.00D-08 within 128 cycles.
 Requested convergence on MAX density matrix=1.00D-06.
 Requested convergence on             energy=1.00D-06.
 No special actions if energy rises.
 SCF Done:  E(UB3LYP) =  -153.310887740     A.U. after   14 cycles
            NFock= 14  Conv=0.35D-08     -V/T= 2.0108
 <Sx>= 0.0000 <Sy>= 0.0000 <Sz>= 0.0000 <S**2>=-0.0000 S=-0.0000
 <L.S>= 0.000000000000E+00
 Annihilation of the first spin contaminant:
 S**2 before annihilation    -0.0000,   after    -0.0000

 **********************************************************************

            Population analysis using the SCF density.

 **********************************************************************

 Orbital symmetries:
 Alpha Orbitals:
       Occupied  (A) (A) (A) (A) (A) (A) (A) (A) (A) (A) (A) (A)
                 (A)
       Virtual   (A) (A) (A) (A) (A) (A) (A) (A) (A) (A) (A) (A)
                 (A) (A) (A) (A) (A) (A) (A) (A) (A) (A) (A) (A)
                 (A) (A) (A) (A) (A) (A) (A) (A) (A) (A) (A) (A)
                 (A) (A) (A) (A) (A) (A) (A) (A) (A) (A) (A) (A)
                 (A) (A) (A) (A) (A) (A) (A) (A) (A) (A) (A) (A)
                 (A) (A) (A) (A) (A) (A) (A)
 Beta  Orbitals:
       Occupied  (A) (A) (A) (A) (A) (A) (A) (A) (A) (A) (A) (A)
                 (A)
       Virtual   (A) (A) (A) (A) (A) (A) (A) (A) (A) (A) (A) (A)
                 (A) (A) (A) (A) (A) (A) (A) (A) (A) (A) (A) (A)
                 (A) (A) (A) (A) (A) (A) (A) (A) (A) (A) (A) (A)
                 (A) (A) (A) (A) (A) (A) (A) (A) (A) (A) (A) (A)
                 (A) (A) (A) (A) (A) (A) (A) (A) (A) (A) (A) (A)
                 (A) (A) (A) (A) (A) (A) (A)
 The electronic state is 1-A.
 Alpha  occ. eigenvalues --  -10.29319 -10.29141 -10.24608 -10.24503  -0.86352
 Alpha  occ. eigenvalues --   -0.73532  -0.61723  -0.51618  -0.49834  -0.37396
 Alpha  occ. eigenvalues --   -0.33407  -0.31169  -0.25416
 Alpha virt. eigenvalues --   -0.14876  -0.11427  -0.08362   0.00208   0.02677
 Alpha virt. eigenvalues --    0.04081   0.04521   0.05746   0.06635   0.08002
 Alpha virt. eigenvalues --    0.09061   0.09109   0.10617   0.11968   0.12798
 Alpha virt. eigenvalues --    0.15267   0.16434   0.17268   0.17596   0.20237
 Alpha virt. eigenvalues --    0.20882   0.25618   0.28293   0.37589   0.43254
 Alpha virt. eigenvalues --    0.57460   0.63138   0.63478   0.67457   0.69017
 Alpha virt. eigenvalues --    0.69229   0.69587   0.73007   0.73095   0.75735
 Alpha virt. eigenvalues --    0.79076   0.79818   0.89314   0.94035   1.05294
 Alpha virt. eigenvalues --    1.05757   1.14535   1.23353   1.29233   1.39384
 Alpha virt. eigenvalues --    1.47715   1.63728   1.65424   1.71596   1.72522
 Alpha virt. eigenvalues --    1.74370   1.87313   1.88035   1.99711   2.15294
 Alpha virt. eigenvalues --    2.19171   2.20248   2.25000   2.45537   2.53958
 Alpha virt. eigenvalues --    2.56159   2.76695   2.94512   4.05572   4.12830
 Alpha virt. eigenvalues --    4.20918   4.41926
  Beta  occ. eigenvalues --  -10.29319 -10.29141 -10.24608 -10.24503  -0.86352
  Beta  occ. eigenvalues --   -0.73532  -0.61723  -0.51618  -0.49834  -0.37396
  Beta  occ. eigenvalues --   -0.33407  -0.31169  -0.25416
  Beta virt. eigenvalues --   -0.14876  -0.11427  -0.08362   0.00208   0.02677
  Beta virt. eigenvalues --    0.04081   0.04521   0.05746   0.06635   0.08002
  Beta virt. eigenvalues --    0.09061   0.09109   0.10617   0.11968   0.12798
  Beta virt. eigenvalues --    0.15267   0.16434   0.17268   0.17596   0.20237
  Beta virt. eigenvalues --    0.20882   0.25618   0.28293   0.37589   0.43254
  Beta virt. eigenvalues --    0.57460   0.63138   0.63478   0.67457   0.69017
  Beta virt. eigenvalues --    0.69229   0.69587   0.73007   0.73095   0.75735
  Beta virt. eigenvalues --    0.79076   0.79818   0.89314   0.94035   1.05294
  Beta virt. eigenvalues --    1.05757   1.14535   1.23353   1.29233   1.39384
  Beta virt. eigenvalues --    1.47715   1.63728   1.65424   1.71596   1.72522
  Beta virt. eigenvalues --    1.74370   1.87313   1.88035   1.99711   2.15294
  Beta virt. eigenvalues --    2.19171   2.20248   2.25000   2.45537   2.53958
  Beta virt. eigenvalues --    2.56159   2.76695   2.94512   4.05572   4.12830
  Beta virt. eigenvalues --    4.20918   4.41926
          Condensed to atoms (all electrons):
               1          2          3          4          5          6
     1  C    7.362354  -0.858391  -1.751195   0.164635   0.889697   0.073482
     2  C   -0.858391   7.344309   0.906661   0.065470  -1.743148   0.150336
     3  C   -1.751195   0.906661   7.817723   0.128171  -0.677731  -0.048657
     4  H    0.164635   0.065470   0.128171   0.449864  -0.050335  -0.007195
     5  C    0.889697  -1.743148  -0.677731  -0.050335   7.829246   0.132397
     6  H    0.073482   0.150336  -0.048657  -0.007195   0.132397   0.448109
          Atomic-Atomic Spin Densities.
               1          2          3          4          5          6
     1  C   -0.000000   0.000000   0.000000   0.000000  -0.000000  -0.000000
     2  C    0.000000  -0.000000  -0.000000  -0.000000   0.000000   0.000000
     3  C    0.000000  -0.000000  -0.000000  -0.000000   0.000000   0.000000
     4  H    0.000000  -0.000000  -0.000000   0.000000   0.000000  -0.000000
     5  C   -0.000000   0.000000   0.000000   0.000000  -0.000000  -0.000000
     6  H   -0.000000   0.000000   0.000000  -0.000000  -0.000000  -0.000000
 Mulliken charges and spin densities:
               1          2
     1  C    0.119417   0.000000
     2  C    0.134762   0.000000
     3  C   -0.374972  -0.000000
     4  H    0.249390   0.000000
     5  C   -0.380125  -0.000000
     6  H    0.251528  -0.000000
 Sum of Mulliken charges =  -0.00000   0.00000
 Mulliken charges and spin densities with hydrogens summed into heavy atoms:
               1          2
     1  C    0.368807   0.000000
     2  C    0.386291   0.000000
     3  C   -0.374972  -0.000000
     5  C   -0.380125  -0.000000
 Electronic spatial extent (au):  <R**2>=            219.6019
 Charge=             -0.0000 electrons
 Dipole moment (field-independent basis, Debye):
    X=             -0.0185    Y=              3.6768    Z=              0.0311  Tot=              3.6769
 Quadrupole moment (field-independent basis, Debye-Ang):
   XX=            -25.6625   YY=            -24.4990   ZZ=            -26.8805
   XY=              0.1253   XZ=              0.0516   YZ=              0.0679
 Traceless Quadrupole moment (field-independent basis, Debye-Ang):
   XX=              0.0182   YY=              1.1816   ZZ=             -1.1998
   XY=              0.1253   XZ=              0.0516   YZ=              0.0679
 Octapole moment (field-independent basis, Debye-Ang**2):
  XXX=             -0.2941  YYY=             16.2096  ZZZ=              0.0417  XYY=             -0.0539
  XXY=             15.0677  XXZ=              0.1447  XZZ=             -0.0971  YZZ=              2.4915
  YYZ=              0.0650  XYZ=              0.0657
 Hexadecapole moment (field-independent basis, Debye-Ang**3):
 XXXX=           -219.6830 YYYY=           -103.1543 ZZZZ=            -36.5540 XXXY=              1.4125
 XXXZ=              0.1854 YYYX=             -0.3292 YYYZ=              0.1895 ZZZX=              0.0900
 ZZZY=              0.0687 XXYY=            -62.1008 XXZZ=            -47.8131 YYZZ=            -24.5419
 XXYZ=              0.1277 YYXZ=              0.1022 ZZXY=              0.0002
 N-N= 7.733724287780D+01 E-N=-5.089376873351D+02  KE= 1.516698918172D+02
                          Isotropic Fermi Contact Couplings
        Atom                 a.u.       MegaHertz       Gauss      10(-4) cm-1
     1  C(13)              0.00000       0.00000       0.00000       0.00000
     2  C(13)              0.00000       0.00000       0.00000       0.00000
     3  C(13)             -0.00000      -0.00000      -0.00000      -0.00000
     4  H(1)               0.00000       0.00000       0.00000       0.00000
     5  C(13)             -0.00000      -0.00000      -0.00000      -0.00000
     6  H(1)              -0.00000      -0.00000      -0.00000      -0.00000
 --------------------------------------------------------
       Center         ----  Spin Dipole Couplings  ----
                      3XX-RR        3YY-RR        3ZZ-RR
 --------------------------------------------------------
     1   Atom        0.000000     -0.000000     -0.000000
     2   Atom       -0.000000      0.000000      0.000000
     3   Atom       -0.000000     -0.000000      0.000000
     4   Atom       -0.000000      0.000000     -0.000000
     5   Atom        0.000000      0.000000     -0.000000
     6   Atom        0.000000      0.000000     -0.000000
 --------------------------------------------------------
                        XY            XZ            YZ
 --------------------------------------------------------
     1   Atom        0.000000     -0.000000     -0.000000
     2   Atom       -0.000000      0.000000      0.000000
     3   Atom        0.000000     -0.000000      0.000000
     4   Atom        0.000000      0.000000     -0.000000
     5   Atom       -0.000000     -0.000000      0.000000
     6   Atom        0.000000      0.000000      0.000000
 --------------------------------------------------------


 ---------------------------------------------------------------------------------
              Anisotropic Spin Dipole Couplings in Principal Axis System
 ---------------------------------------------------------------------------------

       Atom             a.u.   MegaHertz   Gauss  10(-4) cm-1        Axes

              Baa    -0.0000    -0.000    -0.000    -0.000 -0.4322  0.8982 -0.0795
     1 C(13)  Bbb    -0.0000    -0.000    -0.000    -0.000 -0.0135  0.0817  0.9966
              Bcc     0.0000     0.000     0.000     0.000  0.9017  0.4318 -0.0232
 
              Baa    -0.0000    -0.000    -0.000    -0.000  0.9979  0.0331 -0.0560
     2 C(13)  Bbb     0.0000     0.000     0.000     0.000 -0.0341  0.9993 -0.0181
              Bcc     0.0000     0.000     0.000     0.000  0.0553  0.0199  0.9983
 
              Baa    -0.0000    -0.000    -0.000    -0.000  0.8413 -0.5375  0.0577
     3 C(13)  Bbb     0.0000     0.000     0.000     0.000  0.5345  0.8431  0.0593
              Bcc     0.0000     0.000     0.000     0.000 -0.0806 -0.0191  0.9966
 
              Baa    -0.0000    -0.000    -0.000    -0.000  0.7905 -0.5988 -0.1290
     4 H(1)   Bbb    -0.0000    -0.000    -0.000    -0.000  0.1212 -0.0534  0.9912
              Bcc     0.0000     0.000     0.000     0.000  0.6004  0.7991 -0.0303
 
              Baa    -0.0000    -0.000    -0.000    -0.000  0.0270 -0.0078  0.9996
     5 C(13)  Bbb    -0.0000    -0.000    -0.000    -0.000  0.7505  0.6607 -0.0151
              Bcc     0.0000     0.000     0.000     0.000 -0.6603  0.7506  0.0236
 
              Baa    -0.0000    -0.000    -0.000    -0.000  0.7255 -0.6879 -0.0182
     6 H(1)   Bbb    -0.0000    -0.000    -0.000    -0.000 -0.0022 -0.0288  0.9996
              Bcc     0.0000     0.000     0.000     0.000  0.6882  0.7252  0.0224
 

 ---------------------------------------------------------------------------------

 1\1\GINC-NODE32\SP\UB3LYP\6-31+G(d)\C4H2\YANZ\12-Oct-2023\0\\# ub3lyp/
 6-31+g(d)\\tmpdir/M2_ref_6.gjf\\0,1\C,0,1.5691386,-1.37271489,-0.06897
 614\C,0,0.35803021,-0.69509548,-0.06228099\C,0,2.76086323,-0.64577722,
 -0.05543502\H,0,1.58781592,-2.45944017,-0.09245997\C,0,0.33039499,0.70
 663737,-0.01689504\H,0,-0.64898759,-1.14630964,-0.03800929\\Version=ES
 64L-G16RevA.03\State=1-A\HF=-153.3108877\S2=0.\S2-1=0.\S2A=0.\RMSD=3.5
 13e-09\Dipole=-0.6977723,-1.2671041,-0.0161514\Quadrupole=0.2974886,0.
 5947324,-0.892221,0.4180826,-0.0504648,0.0086557\PG=C01 [X(C4H2)]\\@


 Until you make peace with who you are,
 you'll never be content with what you have.
                           -- Doris Mortman
 Job cpu time:       0 days  0 hours  0 minutes 32.1 seconds.
 Elapsed time:       0 days  0 hours  0 minutes 16.6 seconds.
 File lengths (MBytes):  RWF=     10 Int=      0 D2E=      0 Chk=      2 Scr=      1
 Normal termination of Gaussian 16 at Thu Oct 12 15:11:17 2023.
