 Entering Gaussian System, Link 0=g16
 Initial command:
 /share/apps/gaussian/g16/l1.exe "/tmp/58287.mgr/Gau-22205.inp" -scrdir="/tmp/58287.mgr/"
 Entering Link 1 = /share/apps/gaussian/g16/l1.exe PID=     22206.
  
 Copyright (c) 1988,1990,1992,1993,1995,1998,2003,2009,2016,
            Gaussian, Inc.  All Rights Reserved.
  
 This is part of the Gaussian(R) 16 program.  It is based on
 the Gaussian(R) 09 system (copyright 2009, Gaussian, Inc.),
 the Gaussian(R) 03 system (copyright 2003, Gaussian, Inc.),
 the Gaussian(R) 98 system (copyright 1998, Gaussian, Inc.),
 the Gaussian(R) 94 system (copyright 1995, Gaussian, Inc.),
 the Gaussian 92(TM) system (copyright 1992, Gaussian, Inc.),
 the Gaussian 90(TM) system (copyright 1990, Gaussian, Inc.),
 the Gaussian 88(TM) system (copyright 1988, Gaussian, Inc.),
 the Gaussian 86(TM) system (copyright 1986, Carnegie Mellon
 University), and the Gaussian 82(TM) system (copyright 1983,
 Carnegie Mellon University). Gaussian is a federally registered
 trademark of Gaussian, Inc.
  
 This software contains proprietary and confidential information,
 including trade secrets, belonging to Gaussian, Inc.
  
 This software is provided under written license and may be
 used, copied, transmitted, or stored only in accord with that
 written license.
  
 The following legend is applicable only to US Government
 contracts under FAR:
  
                    RESTRICTED RIGHTS LEGEND
  
 Use, reproduction and disclosure by the US Government is
 subject to restrictions as set forth in subparagraphs (a)
 and (c) of the Commercial Computer Software - Restricted
 Rights clause in FAR 52.227-19.
  
 Gaussian, Inc.
 340 Quinnipiac St., Bldg. 40, Wallingford CT 06492
  
  
 ---------------------------------------------------------------
 Warning -- This program may not be used in any manner that
 competes with the business of Gaussian, Inc. or will provide
 assistance to any competitor of Gaussian, Inc.  The licensee
 of this program is prohibited from giving any competitor of
 Gaussian, Inc. access to this program.  By using this program,
 the user acknowledges that Gaussian, Inc. is engaged in the
 business of creating and licensing software in the field of
 computational chemistry and represents and warrants to the
 licensee that it is not a competitor of Gaussian, Inc. and that
 it will not use this program in any manner prohibited above.
 ---------------------------------------------------------------
  

 Cite this work as:
 Gaussian 16, Revision A.03,
 M. J. Frisch, G. W. Trucks, H. B. Schlegel, G. E. Scuseria, 
 M. A. Robb, J. R. Cheeseman, G. Scalmani, V. Barone, 
 G. A. Petersson, H. Nakatsuji, X. Li, M. Caricato, A. V. Marenich, 
 J. Bloino, B. G. Janesko, R. Gomperts, B. Mennucci, H. P. Hratchian, 
 J. V. Ortiz, A. F. Izmaylov, J. L. Sonnenberg, D. Williams-Young, 
 F. Ding, F. Lipparini, F. Egidi, J. Goings, B. Peng, A. Petrone, 
 T. Henderson, D. Ranasinghe, V. G. Zakrzewski, J. Gao, N. Rega, 
 G. Zheng, W. Liang, M. Hada, M. Ehara, K. Toyota, R. Fukuda, 
 J. Hasegawa, M. Ishida, T. Nakajima, Y. Honda, O. Kitao, H. Nakai, 
 T. Vreven, K. Throssell, J. A. Montgomery, Jr., J. E. Peralta, 
 F. Ogliaro, M. J. Bearpark, J. J. Heyd, E. N. Brothers, K. N. Kudin, 
 V. N. Staroverov, T. A. Keith, R. Kobayashi, J. Normand, 
 K. Raghavachari, A. P. Rendell, J. C. Burant, S. S. Iyengar, 
 J. Tomasi, M. Cossi, J. M. Millam, M. Klene, C. Adamo, R. Cammi, 
 J. W. Ochterski, R. L. Martin, K. Morokuma, O. Farkas, 
 J. B. Foresman, and D. J. Fox, Gaussian, Inc., Wallingford CT, 2016.
 
 ******************************************
 Gaussian 16:  ES64L-G16RevA.03 25-Dec-2016
                12-Oct-2023 
 ******************************************
 %nprocshared=4
 Will use up to    4 processors via shared memory.
 %mem=4GB
 ------------------
 # ub3lyp/6-31+g(d)
 ------------------
 1/38=1,172=1/1;
 2/12=2,17=6,18=5,40=1/2;
 3/5=1,6=6,7=11,11=2,25=1,30=1,74=-5,116=2/1,2,3;
 4//1;
 5/5=2,38=5/2;
 6/7=2,8=2,9=2,10=2,28=1/1;
 99/5=1,9=1/99;
 ----------------------
 tmpdir/M3_conf_0_2.gjf
 ----------------------
 Symbolic Z-matrix:
 Charge =  0 Multiplicity = 2
 C                     0.        0.        0. 
 C                     1.5232    0.        0. 
 H                    -0.21043   0.       -1.08356 
 H                    -0.4359   -0.86465   0.50546 
 H                    -0.33001   0.96596   0.40963 
 H                     1.90562   0.94365  -0.35376 
 H                     2.00052  -0.92719  -0.31853 
 
                          Input orientation:                          
 ---------------------------------------------------------------------
 Center     Atomic      Atomic             Coordinates (Angstroms)
 Number     Number       Type             X           Y           Z
 ---------------------------------------------------------------------
      1          6           0        0.000000    0.000000    0.000000
      2          6           0        1.523200    0.000000    0.000000
      3          1           0       -0.210430    0.000000   -1.083560
      4          1           0       -0.435900   -0.864650    0.505460
      5          1           0       -0.330010    0.965960    0.409630
      6          1           0        1.905620    0.943650   -0.353760
      7          1           0        2.000520   -0.927190   -0.318530
 ---------------------------------------------------------------------
                    Distance matrix (angstroms):
                    1          2          3          4          5
     1  C    0.000000
     2  C    1.523200   0.000000
     3  H    1.103804   2.044401   0.000000
     4  H    1.092300   2.200269   1.823031   0.000000
     5  H    1.099901   2.129616   1.782413   1.836172   0.000000
     6  H    2.155692   1.077899   2.429146   3.080734   2.362478
     7  H    2.227829   1.090402   2.516595   2.572744   3.089596
                    6          7
     6  H    0.000000
     7  H    1.873577   0.000000
 Stoichiometry    C2H5(2)
 Framework group  C1[X(C2H5)]
 Deg. of freedom    15
 Full point group                 C1      NOp   1
 Largest Abelian subgroup         C1      NOp   1
 Largest concise Abelian subgroup C1      NOp   1
                         Standard orientation:                         
 ---------------------------------------------------------------------
 Center     Atomic      Atomic             Coordinates (Angstroms)
 Number     Number       Type             X           Y           Z
 ---------------------------------------------------------------------
      1          6           0        0.711585   -0.012290    0.002571
      2          6           0       -0.807585   -0.005754   -0.107968
      3          1           0        0.843128    0.037714    1.097367
      4          1           0        1.176227   -0.901594   -0.429128
      5          1           0        1.077756    0.931934   -0.426547
      6          1           0       -1.207315    0.955106    0.172799
      7          1           0       -1.313793   -0.914899    0.217894
 ---------------------------------------------------------------------
 Rotational constants (GHZ):          96.5709936          22.7973950          21.1841885
 Standard basis: 6-31+G(d) (6D, 7F)
 There are    48 symmetry adapted cartesian basis functions of A   symmetry.
 There are    48 symmetry adapted basis functions of A   symmetry.
    48 basis functions,    84 primitive gaussians,    48 cartesian basis functions
     9 alpha electrons        8 beta electrons
       nuclear repulsion energy        36.7778682360 Hartrees.
 NAtoms=    7 NActive=    7 NUniq=    7 SFac= 1.00D+00 NAtFMM=   60 NAOKFM=F Big=F
 Integral buffers will be    131072 words long.
 Raffenetti 2 integral format.
 Two-electron integral symmetry is turned on.
 One-electron integrals computed using PRISM.
 NBasis=    48 RedAO= T EigKep=  3.99D-04  NBF=    48
 NBsUse=    48 1.00D-06 EigRej= -1.00D+00 NBFU=    48
 ExpMin= 4.38D-02 ExpMax= 3.05D+03 ExpMxC= 4.57D+02 IAcc=3 IRadAn=         5 AccDes= 0.00D+00
 Harris functional with IExCor=  402 and IRadAn=       5 diagonalized for initial guess.
 HarFok:  IExCor=  402 AccDes= 0.00D+00 IRadAn=         5 IDoV= 1 UseB2=F ITyADJ=14
 ICtDFT=  3500011 ScaDFX=  1.000000  1.000000  1.000000  1.000000
 FoFCou: FMM=F IPFlag=           0 FMFlag=      100000 FMFlg1=           0
         NFxFlg=           0 DoJE=T BraDBF=F KetDBF=T FulRan=T
         wScrn=  0.000000 ICntrl=       500 IOpCl=  0 I1Cent=   200000004 NGrid=           0
         NMat0=    1 NMatS0=      1 NMatT0=    0 NMatD0=    1 NMtDS0=    0 NMtDT0=    0
 Petite list used in FoFCou.
 Initial guess <Sx>= 0.0000 <Sy>= 0.0000 <Sz>= 0.5000 <S**2>= 0.7500 S= 0.5000
 Keep R1 and R2 ints in memory in canonical form, NReq=4869967.
 Requested convergence on RMS density matrix=1.00D-08 within 128 cycles.
 Requested convergence on MAX density matrix=1.00D-06.
 Requested convergence on             energy=1.00D-06.
 No special actions if energy rises.
 SCF Done:  E(UB3LYP) =  -79.1547164345     A.U. after   12 cycles
            NFock= 12  Conv=0.43D-08     -V/T= 2.0107
 <Sx>= 0.0000 <Sy>= 0.0000 <Sz>= 0.5000 <S**2>= 0.7531 S= 0.5016
 <L.S>= 0.000000000000E+00
 Annihilation of the first spin contaminant:
 S**2 before annihilation     0.7531,   after     0.7500

 **********************************************************************

            Population analysis using the SCF density.

 **********************************************************************

 Orbital symmetries:
 Alpha Orbitals:
       Occupied  (A) (A) (A) (A) (A) (A) (A) (A) (A)
       Virtual   (A) (A) (A) (A) (A) (A) (A) (A) (A) (A) (A) (A)
                 (A) (A) (A) (A) (A) (A) (A) (A) (A) (A) (A) (A)
                 (A) (A) (A) (A) (A) (A) (A) (A) (A) (A) (A) (A)
                 (A) (A) (A)
 Beta  Orbitals:
       Occupied  (A) (A) (A) (A) (A) (A) (A) (A)
       Virtual   (A) (A) (A) (A) (A) (A) (A) (A) (A) (A) (A) (A)
                 (A) (A) (A) (A) (A) (A) (A) (A) (A) (A) (A) (A)
                 (A) (A) (A) (A) (A) (A) (A) (A) (A) (A) (A) (A)
                 (A) (A) (A) (A)
 The electronic state is 2-A.
 Alpha  occ. eigenvalues --  -10.19897 -10.18841  -0.76079  -0.60668  -0.46080
 Alpha  occ. eigenvalues --   -0.42308  -0.37236  -0.36825  -0.21417
 Alpha virt. eigenvalues --    0.01863   0.03314   0.04990   0.05801   0.08142
 Alpha virt. eigenvalues --    0.08857   0.09758   0.14824   0.17198   0.19669
 Alpha virt. eigenvalues --    0.22893   0.23391   0.25056   0.30354   0.61880
 Alpha virt. eigenvalues --    0.64421   0.66088   0.67600   0.68867   0.70466
 Alpha virt. eigenvalues --    0.90476   0.93352   0.94121   0.99537   1.03667
 Alpha virt. eigenvalues --    1.08751   1.28917   1.46393   1.56029   1.89460
 Alpha virt. eigenvalues --    1.92138   2.01677   2.18676   2.23843   2.29117
 Alpha virt. eigenvalues --    2.34558   2.61685   4.10131   4.32340
  Beta  occ. eigenvalues --  -10.18879 -10.18508  -0.74486  -0.58439  -0.45463
  Beta  occ. eigenvalues --   -0.40850  -0.36431  -0.36283
  Beta virt. eigenvalues --   -0.05903   0.02031   0.03498   0.05006   0.06234
  Beta virt. eigenvalues --    0.08122   0.08850   0.11116   0.15140   0.17841
  Beta virt. eigenvalues --    0.19785   0.24124   0.24397   0.26012   0.30940
  Beta virt. eigenvalues --    0.62480   0.64678   0.66948   0.69632   0.71297
  Beta virt. eigenvalues --    0.73521   0.91985   0.93947   0.94509   1.01330
  Beta virt. eigenvalues --    1.04350   1.09226   1.30193   1.48943   1.58937
  Beta virt. eigenvalues --    1.93161   1.95184   2.04196   2.22388   2.25521
  Beta virt. eigenvalues --    2.30202   2.35347   2.63121   4.12582   4.33465
          Condensed to atoms (all electrons):
               1          2          3          4          5          6
     1  C    5.431567   0.168974   0.385944   0.396747   0.409522  -0.048635
     2  C    0.168974   5.532564  -0.067690  -0.050356  -0.068176   0.381030
     3  H    0.385944  -0.067690   0.537670  -0.026994  -0.032260  -0.001974
     4  H    0.396747  -0.050356  -0.026994   0.496407  -0.022510   0.004175
     5  H    0.409522  -0.068176  -0.032260  -0.022510   0.510265  -0.005739
     6  H   -0.048635   0.381030  -0.001974   0.004175  -0.005739   0.524115
     7  H   -0.040922   0.376694  -0.002005  -0.003665   0.004197  -0.031205
               7
     1  C   -0.040922
     2  C    0.376694
     3  H   -0.002005
     4  H   -0.003665
     5  H    0.004197
     6  H   -0.031205
     7  H    0.517110
          Atomic-Atomic Spin Densities.
               1          2          3          4          5          6
     1  C   -0.007710  -0.117381   0.045386  -0.000189   0.000935  -0.006472
     2  C   -0.117381   1.297850  -0.059949  -0.001872  -0.002802  -0.004651
     3  H    0.045386  -0.059949   0.086786  -0.008352  -0.008227  -0.001676
     4  H   -0.000189  -0.001872  -0.008352   0.015313   0.003020   0.000107
     5  H    0.000935  -0.002802  -0.008227   0.003020   0.014446   0.001339
     6  H   -0.006472  -0.004651  -0.001676   0.000107   0.001339  -0.034292
     7  H   -0.008043  -0.003168  -0.001650   0.001041   0.000149   0.002343
               7
     1  C   -0.008043
     2  C   -0.003168
     3  H   -0.001650
     4  H    0.001041
     5  H    0.000149
     6  H    0.002343
     7  H   -0.032172
 Mulliken charges and spin densities:
               1          2
     1  C   -0.703197  -0.093474
     2  C   -0.273039   1.108026
     3  H    0.207308   0.052319
     4  H    0.206197   0.009068
     5  H    0.204700   0.008861
     6  H    0.178234  -0.043301
     7  H    0.179796  -0.041499
 Sum of Mulliken charges =  -0.00000   1.00000
 Mulliken charges and spin densities with hydrogens summed into heavy atoms:
               1          2
     1  C   -0.084991  -0.023226
     2  C    0.084991   1.023226
 Electronic spatial extent (au):  <R**2>=             99.3953
 Charge=             -0.0000 electrons
 Dipole moment (field-independent basis, Debye):
    X=              0.3694    Y=              0.0336    Z=              0.6118  Tot=              0.7154
 Quadrupole moment (field-independent basis, Debye-Ang):
   XX=            -15.5084   YY=            -13.6135   ZZ=            -15.5087
   XY=             -0.0172   XZ=             -0.8988   YZ=              0.0199
 Traceless Quadrupole moment (field-independent basis, Debye-Ang):
   XX=             -0.6316   YY=              1.2634   ZZ=             -0.6318
   XY=             -0.0172   XZ=             -0.8988   YZ=              0.0199
 Octapole moment (field-independent basis, Debye-Ang**2):
  XXX=              0.9638  YYY=              0.1408  ZZZ=              1.9545  XYY=              0.0053
  XXY=             -0.3586  XXZ=              0.7553  XZZ=              1.7044  YZZ=              0.0398
  YYZ=              0.0029  XYZ=              0.1520
 Hexadecapole moment (field-independent basis, Debye-Ang**3):
 XXXX=            -91.7237 YYYY=            -30.0332 ZZZZ=            -27.7185 XXXY=             -0.0301
 XXXZ=             -2.9353 YYYX=             -0.1247 YYYZ=             -0.0276 ZZZX=             -1.2244
 ZZZY=              0.0768 XXYY=            -18.1248 XXZZ=            -20.8686 YYZZ=             -9.9791
 XXYZ=              0.0432 YYXZ=             -1.5643 ZZXY=             -0.0134
 N-N= 3.677786823598D+01 E-N=-2.559260607100D+02  KE= 7.831538527624D+01
                          Isotropic Fermi Contact Couplings
        Atom                 a.u.       MegaHertz       Gauss      10(-4) cm-1
     1  C(13)             -0.01744     -19.60149      -6.99430      -6.53835
     2  C(13)              0.18861     212.03310      75.65868      70.72663
     3  H(1)               0.02858     127.76663      45.59031      42.61836
     4  H(1)               0.00514      22.98452       8.20145       7.66681
     5  H(1)               0.00525      23.48138       8.37874       7.83255
     6  H(1)              -0.00957     -42.77358     -15.26268     -14.26773
     7  H(1)              -0.00887     -39.62766     -14.14013     -13.21836
 --------------------------------------------------------
       Center         ----  Spin Dipole Couplings  ----
                      3XX-RR        3YY-RR        3ZZ-RR
 --------------------------------------------------------
     1   Atom        0.009538     -0.026200      0.016662
     2   Atom       -0.459266     -0.505619      0.964885
     3   Atom        0.009850     -0.014294      0.004444
     4   Atom        0.012642     -0.004362     -0.008280
     5   Atom        0.012880     -0.004022     -0.008858
     6   Atom       -0.045197      0.046887     -0.001690
     7   Atom       -0.033088      0.033442     -0.000354
 --------------------------------------------------------
                        XY            XZ            YZ
 --------------------------------------------------------
     1   Atom       -0.002094      0.021195     -0.000001
     2   Atom        0.002222      0.257097      0.018471
     3   Atom        0.000196      0.009515      0.001032
     4   Atom       -0.011358     -0.001282      0.000936
     5   Atom        0.012741     -0.001466     -0.001151
     6   Atom       -0.045947     -0.000629      0.025618
     7   Atom        0.053832     -0.005681     -0.026002
 --------------------------------------------------------


 ---------------------------------------------------------------------------------
              Anisotropic Spin Dipole Couplings in Principal Axis System
 ---------------------------------------------------------------------------------

       Atom             a.u.   MegaHertz   Gauss  10(-4) cm-1        Axes

              Baa    -0.0264    -3.539    -1.263    -1.180  0.0819  0.9958 -0.0403
     1 C(13)  Bbb    -0.0083    -1.107    -0.395    -0.369  0.7587 -0.0885 -0.6455
              Bcc     0.0346     4.646     1.658     1.550  0.6463 -0.0223  0.7627
 
              Baa    -0.5063   -67.944   -24.244   -22.664  0.4253  0.9010 -0.0856
     2 C(13)  Bbb    -0.5038   -67.602   -24.122   -22.550  0.8885 -0.4336 -0.1501
              Bcc     1.0101   135.546    48.366    45.213  0.1724  0.0123  0.9850
 
              Baa    -0.0144    -7.660    -2.733    -2.555  0.0168  0.9979 -0.0633
     3 H(1)   Bbb    -0.0027    -1.442    -0.514    -0.481 -0.6036  0.0606  0.7950
              Bcc     0.0171     9.101     3.248     3.036  0.7971  0.0248  0.6033
 
              Baa    -0.0101    -5.383    -1.921    -1.795  0.4350  0.8876 -0.1511
     4 H(1)   Bbb    -0.0083    -4.445    -1.586    -1.483  0.1195  0.1094  0.9868
              Bcc     0.0184     9.828     3.507     3.278  0.8924 -0.4474 -0.0585
 
              Baa    -0.0109    -5.822    -2.078    -1.942 -0.4579  0.8739  0.1629
     5 H(1)   Bbb    -0.0089    -4.761    -1.699    -1.588  0.1328 -0.1139  0.9846
              Bcc     0.0198    10.583     3.776     3.530  0.8790  0.4725 -0.0639
 
              Baa    -0.0656   -35.014   -12.494   -11.680  0.9023  0.4032 -0.1527
     6 H(1)   Bbb    -0.0079    -4.230    -1.510    -1.411  0.2586 -0.2226  0.9400
              Bcc     0.0736    39.245    14.003    13.091 -0.3451  0.8876  0.3051
 
              Baa    -0.0641   -34.208   -12.206   -11.411  0.8530 -0.5054 -0.1301
     7 H(1)   Bbb    -0.0083    -4.436    -1.583    -1.480  0.2762  0.2257  0.9342
              Bcc     0.0724    38.645    13.789    12.890  0.4428  0.8329 -0.3321
 

 ---------------------------------------------------------------------------------

 1\1\GINC-NODE31\SP\UB3LYP\6-31+G(d)\C2H5(2)\YANZ\12-Oct-2023\0\\# ub3l
 yp/6-31+g(d)\\tmpdir/M3_conf_0_2.gjf\\0,2\C,0,0.,0.,0.\C,0,1.5232,0.,0
 .\H,0,-0.21043,0.,-1.08356\H,0,-0.4359,-0.86465,0.50546\H,0,-0.33001,0
 .96596,0.40963\H,0,1.90562,0.94365,-0.35376\H,0,2.00052,-0.92719,-0.31
 853\\Version=ES64L-G16RevA.03\State=2-A\HF=-79.1547164\S2=0.753149\S2-
 1=0.\S2A=0.750007\RMSD=4.255e-09\Dipole=-0.1623555,0.0031156,-0.229915
 4\Quadrupole=-0.5661611,0.9350433,-0.3688821,-0.0129293,-0.6614174,-0.
 0743558\PG=C01 [X(C2H5)]\\@


 THE ATTENTION SPAN OF A COMPUTER IS AS LONG
 AS ITS EXTENSION CORD.
 Job cpu time:       0 days  0 hours  0 minutes 19.4 seconds.
 Elapsed time:       0 days  0 hours  0 minutes  5.1 seconds.
 File lengths (MBytes):  RWF=      6 Int=      0 D2E=      0 Chk=      1 Scr=      1
 Normal termination of Gaussian 16 at Thu Oct 12 15:28:59 2023.
