 Entering Gaussian System, Link 0=g16
 Initial command:
 /share/apps/gaussian/g16/l1.exe "/tmp/58287.mgr/Gau-22941.inp" -scrdir="/tmp/58287.mgr/"
 Entering Link 1 = /share/apps/gaussian/g16/l1.exe PID=     22942.
  
 Copyright (c) 1988,1990,1992,1993,1995,1998,2003,2009,2016,
            Gaussian, Inc.  All Rights Reserved.
  
 This is part of the Gaussian(R) 16 program.  It is based on
 the Gaussian(R) 09 system (copyright 2009, Gaussian, Inc.),
 the Gaussian(R) 03 system (copyright 2003, Gaussian, Inc.),
 the Gaussian(R) 98 system (copyright 1998, Gaussian, Inc.),
 the Gaussian(R) 94 system (copyright 1995, Gaussian, Inc.),
 the Gaussian 92(TM) system (copyright 1992, Gaussian, Inc.),
 the Gaussian 90(TM) system (copyright 1990, Gaussian, Inc.),
 the Gaussian 88(TM) system (copyright 1988, Gaussian, Inc.),
 the Gaussian 86(TM) system (copyright 1986, Carnegie Mellon
 University), and the Gaussian 82(TM) system (copyright 1983,
 Carnegie Mellon University). Gaussian is a federally registered
 trademark of Gaussian, Inc.
  
 This software contains proprietary and confidential information,
 including trade secrets, belonging to Gaussian, Inc.
  
 This software is provided under written license and may be
 used, copied, transmitted, or stored only in accord with that
 written license.
  
 The following legend is applicable only to US Government
 contracts under FAR:
  
                    RESTRICTED RIGHTS LEGEND
  
 Use, reproduction and disclosure by the US Government is
 subject to restrictions as set forth in subparagraphs (a)
 and (c) of the Commercial Computer Software - Restricted
 Rights clause in FAR 52.227-19.
  
 Gaussian, Inc.
 340 Quinnipiac St., Bldg. 40, Wallingford CT 06492
  
  
 ---------------------------------------------------------------
 Warning -- This program may not be used in any manner that
 competes with the business of Gaussian, Inc. or will provide
 assistance to any competitor of Gaussian, Inc.  The licensee
 of this program is prohibited from giving any competitor of
 Gaussian, Inc. access to this program.  By using this program,
 the user acknowledges that Gaussian, Inc. is engaged in the
 business of creating and licensing software in the field of
 computational chemistry and represents and warrants to the
 licensee that it is not a competitor of Gaussian, Inc. and that
 it will not use this program in any manner prohibited above.
 ---------------------------------------------------------------
  

 Cite this work as:
 Gaussian 16, Revision A.03,
 M. J. Frisch, G. W. Trucks, H. B. Schlegel, G. E. Scuseria, 
 M. A. Robb, J. R. Cheeseman, G. Scalmani, V. Barone, 
 G. A. Petersson, H. Nakatsuji, X. Li, M. Caricato, A. V. Marenich, 
 J. Bloino, B. G. Janesko, R. Gomperts, B. Mennucci, H. P. Hratchian, 
 J. V. Ortiz, A. F. Izmaylov, J. L. Sonnenberg, D. Williams-Young, 
 F. Ding, F. Lipparini, F. Egidi, J. Goings, B. Peng, A. Petrone, 
 T. Henderson, D. Ranasinghe, V. G. Zakrzewski, J. Gao, N. Rega, 
 G. Zheng, W. Liang, M. Hada, M. Ehara, K. Toyota, R. Fukuda, 
 J. Hasegawa, M. Ishida, T. Nakajima, Y. Honda, O. Kitao, H. Nakai, 
 T. Vreven, K. Throssell, J. A. Montgomery, Jr., J. E. Peralta, 
 F. Ogliaro, M. J. Bearpark, J. J. Heyd, E. N. Brothers, K. N. Kudin, 
 V. N. Staroverov, T. A. Keith, R. Kobayashi, J. Normand, 
 K. Raghavachari, A. P. Rendell, J. C. Burant, S. S. Iyengar, 
 J. Tomasi, M. Cossi, J. M. Millam, M. Klene, C. Adamo, R. Cammi, 
 J. W. Ochterski, R. L. Martin, K. Morokuma, O. Farkas, 
 J. B. Foresman, and D. J. Fox, Gaussian, Inc., Wallingford CT, 2016.
 
 ******************************************
 Gaussian 16:  ES64L-G16RevA.03 25-Dec-2016
                12-Oct-2023 
 ******************************************
 %nprocshared=4
 Will use up to    4 processors via shared memory.
 %mem=4GB
 ------------------
 # ub3lyp/6-31+g(d)
 ------------------
 1/38=1,172=1/1;
 2/12=2,17=6,18=5,40=1/2;
 3/5=1,6=6,7=11,11=2,25=1,30=1,74=-5,116=2/1,2,3;
 4//1;
 5/5=2,38=5/2;
 6/7=2,8=2,9=2,10=2,28=1/1;
 99/5=1,9=1/99;
 -----------------------
 tmpdir/M3_conf_0_36.gjf
 -----------------------
 Symbolic Z-matrix:
 Charge =  0 Multiplicity = 1
 C                     0.        0.        0. 
 C                     1.5195    0.        0. 
 H                     2.10092   0.        0.91547 
 H                    -0.34036   0.8174   -0.65908 
 H                    -0.33205  -0.886    -0.57405 
 H                    -0.44044   0.06311   0.99757 
 O                     2.00911  -0.02544  -1.07157 
 
                          Input orientation:                          
 ---------------------------------------------------------------------
 Center     Atomic      Atomic             Coordinates (Angstroms)
 Number     Number       Type             X           Y           Z
 ---------------------------------------------------------------------
      1          6           0        0.000000    0.000000    0.000000
      2          6           0        1.519500    0.000000    0.000000
      3          1           0        2.100920    0.000000    0.915470
      4          1           0       -0.340360    0.817400   -0.659080
      5          1           0       -0.332050   -0.886000   -0.574050
      6          1           0       -0.440440    0.063110    0.997570
      7          8           0        2.009110   -0.025440   -1.071570
 ---------------------------------------------------------------------
                    Distance matrix (angstroms):
                    1          2          3          4          5
     1  C    0.000000
     2  C    1.519500   0.000000
     3  H    2.291713   1.084497   0.000000
     4  H    1.103800   2.135792   3.017814   0.000000
     5  H    1.106701   2.131377   2.987141   1.705541   0.000000
     6  H    1.092299   2.200112   2.543469   1.823036   1.839170
     7  O    2.277154   1.178400   1.989323   2.529928   2.543446
                    6          7
     6  H    0.000000
     7  O    3.207721   0.000000
 Stoichiometry    C2H4O
 Framework group  C1[X(C2H4O)]
 Deg. of freedom    15
 Full point group                 C1      NOp   1
 Largest Abelian subgroup         C1      NOp   1
 Largest concise Abelian subgroup C1      NOp   1
                         Standard orientation:                         
 ---------------------------------------------------------------------
 Center     Atomic      Atomic             Coordinates (Angstroms)
 Number     Number       Type             X           Y           Z
 ---------------------------------------------------------------------
      1          6           0       -1.133175   -0.117774    0.000875
      2          6           0        0.268444    0.469025   -0.002587
      3          1           0        0.451346    1.537829    0.015845
      4          1           0       -1.201225   -0.841484   -0.829780
      5          1           0       -1.208611   -0.792267    0.875034
      6          1           0       -1.925211    0.633325   -0.039690
      7          8           0        1.134010   -0.330614   -0.001392
 ---------------------------------------------------------------------
 Rotational constants (GHZ):          50.0646750          11.2565531           9.7083953
 Standard basis: 6-31+G(d) (6D, 7F)
 There are    65 symmetry adapted cartesian basis functions of A   symmetry.
 There are    65 symmetry adapted basis functions of A   symmetry.
    65 basis functions,   112 primitive gaussians,    65 cartesian basis functions
    12 alpha electrons       12 beta electrons
       nuclear repulsion energy        70.8660143361 Hartrees.
 NAtoms=    7 NActive=    7 NUniq=    7 SFac= 1.00D+00 NAtFMM=   60 NAOKFM=F Big=F
 Integral buffers will be    131072 words long.
 Raffenetti 2 integral format.
 Two-electron integral symmetry is turned on.
 One-electron integrals computed using PRISM.
 NBasis=    65 RedAO= T EigKep=  3.27D-04  NBF=    65
 NBsUse=    65 1.00D-06 EigRej= -1.00D+00 NBFU=    65
 ExpMin= 4.38D-02 ExpMax= 5.48D+03 ExpMxC= 8.25D+02 IAcc=3 IRadAn=         5 AccDes= 0.00D+00
 Harris functional with IExCor=  402 and IRadAn=       5 diagonalized for initial guess.
 HarFok:  IExCor=  402 AccDes= 0.00D+00 IRadAn=         5 IDoV= 1 UseB2=F ITyADJ=14
 ICtDFT=  3500011 ScaDFX=  1.000000  1.000000  1.000000  1.000000
 FoFCou: FMM=F IPFlag=           0 FMFlag=      100000 FMFlg1=           0
         NFxFlg=           0 DoJE=T BraDBF=F KetDBF=T FulRan=T
         wScrn=  0.000000 ICntrl=       500 IOpCl=  0 I1Cent=   200000004 NGrid=           0
         NMat0=    1 NMatS0=      1 NMatT0=    0 NMatD0=    1 NMtDS0=    0 NMtDT0=    0
 Petite list used in FoFCou.
 Initial guess <Sx>= 0.0000 <Sy>= 0.0000 <Sz>= 0.0000 <S**2>=-0.0000 S=-0.0000
 Keep R1 and R2 ints in memory in canonical form, NReq=8155533.
 Requested convergence on RMS density matrix=1.00D-08 within 128 cycles.
 Requested convergence on MAX density matrix=1.00D-06.
 Requested convergence on             energy=1.00D-06.
 No special actions if energy rises.
 SCF Done:  E(UB3LYP) =  -153.829591646     A.U. after   11 cycles
            NFock= 11  Conv=0.20D-08     -V/T= 2.0085
 <Sx>= 0.0000 <Sy>= 0.0000 <Sz>= 0.0000 <S**2>=-0.0000 S=-0.0000
 <L.S>= 0.000000000000E+00
 Annihilation of the first spin contaminant:
 S**2 before annihilation    -0.0000,   after    -0.0000

 **********************************************************************

            Population analysis using the SCF density.

 **********************************************************************

 Orbital symmetries:
 Alpha Orbitals:
       Occupied  (A) (A) (A) (A) (A) (A) (A) (A) (A) (A) (A) (A)
       Virtual   (A) (A) (A) (A) (A) (A) (A) (A) (A) (A) (A) (A)
                 (A) (A) (A) (A) (A) (A) (A) (A) (A) (A) (A) (A)
                 (A) (A) (A) (A) (A) (A) (A) (A) (A) (A) (A) (A)
                 (A) (A) (A) (A) (A) (A) (A) (A) (A) (A) (A) (A)
                 (A) (A) (A) (A) (A)
 Beta  Orbitals:
       Occupied  (A) (A) (A) (A) (A) (A) (A) (A) (A) (A) (A) (A)
       Virtual   (A) (A) (A) (A) (A) (A) (A) (A) (A) (A) (A) (A)
                 (A) (A) (A) (A) (A) (A) (A) (A) (A) (A) (A) (A)
                 (A) (A) (A) (A) (A) (A) (A) (A) (A) (A) (A) (A)
                 (A) (A) (A) (A) (A) (A) (A) (A) (A) (A) (A) (A)
                 (A) (A) (A) (A) (A)
 The electronic state is 1-A.
 Alpha  occ. eigenvalues --  -19.16201 -10.28673 -10.19995  -1.08028  -0.74846
 Alpha  occ. eigenvalues --   -0.59928  -0.49067  -0.44919  -0.44519  -0.41595
 Alpha  occ. eigenvalues --   -0.36937  -0.26545
 Alpha virt. eigenvalues --   -0.03879   0.01244   0.02375   0.04757   0.05088
 Alpha virt. eigenvalues --    0.07413   0.07683   0.09394   0.14209   0.16957
 Alpha virt. eigenvalues --    0.17519   0.20508   0.23044   0.24884   0.25609
 Alpha virt. eigenvalues --    0.28531   0.30058   0.33528   0.40342   0.63435
 Alpha virt. eigenvalues --    0.65291   0.67584   0.68007   0.75733   0.76780
 Alpha virt. eigenvalues --    0.89192   0.91776   1.01364   1.05229   1.08314
 Alpha virt. eigenvalues --    1.17334   1.20267   1.23311   1.31208   1.38145
 Alpha virt. eigenvalues --    1.52292   1.54980   1.71481   1.79199   1.80463
 Alpha virt. eigenvalues --    1.89619   2.06720   2.15761   2.22256   2.26080
 Alpha virt. eigenvalues --    2.36804   2.60288   2.60646   2.87051   3.05908
 Alpha virt. eigenvalues --    4.10749   4.18292   4.38553
  Beta  occ. eigenvalues --  -19.16201 -10.28673 -10.19995  -1.08028  -0.74846
  Beta  occ. eigenvalues --   -0.59928  -0.49067  -0.44919  -0.44519  -0.41595
  Beta  occ. eigenvalues --   -0.36937  -0.26545
  Beta virt. eigenvalues --   -0.03879   0.01244   0.02375   0.04757   0.05088
  Beta virt. eigenvalues --    0.07413   0.07683   0.09394   0.14209   0.16957
  Beta virt. eigenvalues --    0.17519   0.20508   0.23044   0.24884   0.25609
  Beta virt. eigenvalues --    0.28531   0.30058   0.33528   0.40342   0.63435
  Beta virt. eigenvalues --    0.65291   0.67584   0.68007   0.75733   0.76780
  Beta virt. eigenvalues --    0.89192   0.91776   1.01364   1.05229   1.08314
  Beta virt. eigenvalues --    1.17334   1.20267   1.23311   1.31208   1.38145
  Beta virt. eigenvalues --    1.52292   1.54980   1.71481   1.79199   1.80463
  Beta virt. eigenvalues --    1.89619   2.06720   2.15761   2.22256   2.26080
  Beta virt. eigenvalues --    2.36804   2.60288   2.60646   2.87051   3.05908
  Beta virt. eigenvalues --    4.10749   4.18292   4.38553
          Condensed to atoms (all electrons):
               1          2          3          4          5          6
     1  C    5.683544   0.177772  -0.113256   0.386495   0.383526   0.360341
     2  C    0.177772   4.840644   0.391398  -0.033953  -0.031053  -0.038159
     3  H   -0.113256   0.391398   0.616076   0.001956   0.001844   0.005726
     4  H    0.386495  -0.033953   0.001956   0.468395  -0.028287  -0.022972
     5  H    0.383526  -0.031053   0.001844  -0.028287   0.468897  -0.021563
     6  H    0.360341  -0.038159   0.005726  -0.022972  -0.021563   0.510447
     7  O   -0.144393   0.448296  -0.066113  -0.009405  -0.010148   0.009428
               7
     1  C   -0.144393
     2  C    0.448296
     3  H   -0.066113
     4  H   -0.009405
     5  H   -0.010148
     6  H    0.009428
     7  O    8.117038
          Atomic-Atomic Spin Densities.
               1          2          3          4          5          6
     1  C    0.000000  -0.000000  -0.000000  -0.000000   0.000000  -0.000000
     2  C   -0.000000   0.000000   0.000000   0.000000  -0.000000   0.000000
     3  H   -0.000000   0.000000  -0.000000  -0.000000  -0.000000  -0.000000
     4  H   -0.000000   0.000000  -0.000000   0.000000   0.000000  -0.000000
     5  H    0.000000  -0.000000  -0.000000   0.000000   0.000000  -0.000000
     6  H   -0.000000   0.000000  -0.000000  -0.000000  -0.000000  -0.000000
     7  O   -0.000000   0.000000  -0.000000  -0.000000  -0.000000  -0.000000
               7
     1  C   -0.000000
     2  C    0.000000
     3  H   -0.000000
     4  H   -0.000000
     5  H   -0.000000
     6  H   -0.000000
     7  O   -0.000000
 Mulliken charges and spin densities:
               1          2
     1  C   -0.734029  -0.000000
     2  C    0.245056   0.000000
     3  H    0.162369  -0.000000
     4  H    0.237772  -0.000000
     5  H    0.236783  -0.000000
     6  H    0.196753  -0.000000
     7  O   -0.344704  -0.000000
 Sum of Mulliken charges =  -0.00000  -0.00000
 Mulliken charges and spin densities with hydrogens summed into heavy atoms:
               1          2
     1  C   -0.062721  -0.000000
     2  C    0.407425   0.000000
     7  O   -0.344704  -0.000000
 Electronic spatial extent (au):  <R**2>=            160.8252
 Charge=             -0.0000 electrons
 Dipole moment (field-independent basis, Debye):
    X=             -2.1347    Y=              1.3199    Z=              0.0086  Tot=              2.5098
 Quadrupole moment (field-independent basis, Debye-Ang):
   XX=            -21.5163   YY=            -17.7809   ZZ=            -18.1570
   XY=              1.5624   XZ=              0.0262   YZ=             -0.0286
 Traceless Quadrupole moment (field-independent basis, Debye-Ang):
   XX=             -2.3649   YY=              1.3705   ZZ=              0.9944
   XY=              1.5624   XZ=              0.0262   YZ=             -0.0286
 Octapole moment (field-independent basis, Debye-Ang**2):
  XXX=             -0.3348  YYY=              0.5587  ZZZ=              0.0648  XYY=              0.6319
  XXY=              1.1147  XXZ=             -0.0845  XZZ=              1.3523  YZZ=             -1.0457
  YYZ=             -0.0186  XYZ=              0.0548
 Hexadecapole moment (field-independent basis, Debye-Ang**3):
 XXXX=           -145.9876 YYYY=            -47.5292 ZZZZ=            -24.4645 XXXY=             -1.7103
 XXXZ=              0.2277 YYYX=              0.6321 YYYZ=              0.0616 ZZZX=             -0.0670
 ZZZY=             -0.0833 XXYY=            -29.8288 XXZZ=            -27.4681 YYZZ=            -11.5215
 XXYZ=             -0.1072 YYXZ=              0.0858 ZZXY=              0.6796
 N-N= 7.086601433609D+01 E-N=-5.007577936964D+02  KE= 1.525400632137D+02
                          Isotropic Fermi Contact Couplings
        Atom                 a.u.       MegaHertz       Gauss      10(-4) cm-1
     1  C(13)             -0.00000      -0.00000      -0.00000      -0.00000
     2  C(13)              0.00000       0.00000       0.00000       0.00000
     3  H(1)              -0.00000      -0.00000      -0.00000      -0.00000
     4  H(1)               0.00000       0.00000       0.00000       0.00000
     5  H(1)               0.00000       0.00000       0.00000       0.00000
     6  H(1)              -0.00000      -0.00000      -0.00000      -0.00000
     7  O(17)              0.00000      -0.00000      -0.00000      -0.00000
 --------------------------------------------------------
       Center         ----  Spin Dipole Couplings  ----
                      3XX-RR        3YY-RR        3ZZ-RR
 --------------------------------------------------------
     1   Atom        0.000000      0.000000      0.000000
     2   Atom        0.000000      0.000000      0.000000
     3   Atom        0.000000      0.000000      0.000000
     4   Atom        0.000000      0.000000      0.000000
     5   Atom        0.000000      0.000000      0.000000
     6   Atom        0.000000      0.000000      0.000000
     7   Atom        0.000000      0.000000      0.000000
 --------------------------------------------------------
                        XY            XZ            YZ
 --------------------------------------------------------
     1   Atom        0.000000      0.000000      0.000000
     2   Atom        0.000000      0.000000      0.000000
     3   Atom        0.000000      0.000000      0.000000
     4   Atom        0.000000      0.000000      0.000000
     5   Atom        0.000000      0.000000      0.000000
     6   Atom        0.000000      0.000000      0.000000
     7   Atom        0.000000      0.000000      0.000000
 --------------------------------------------------------


 ---------------------------------------------------------------------------------
              Anisotropic Spin Dipole Couplings in Principal Axis System
 ---------------------------------------------------------------------------------

       Atom             a.u.   MegaHertz   Gauss  10(-4) cm-1        Axes

              Baa     0.0000     0.000     0.000     0.000  1.0000  0.0000  0.0000
     1 C(13)  Bbb     0.0000     0.000     0.000     0.000 -0.0000  1.0000  0.0000
              Bcc     0.0000     0.000     0.000     0.000  0.0000  0.0000  1.0000
 
              Baa     0.0000     0.000     0.000     0.000  1.0000  0.0000  0.0000
     2 C(13)  Bbb     0.0000     0.000     0.000     0.000 -0.0000  1.0000  0.0000
              Bcc     0.0000     0.000     0.000     0.000  0.0000  0.0000  1.0000
 
              Baa     0.0000     0.000     0.000     0.000  1.0000  0.0000  0.0000
     3 H(1)   Bbb     0.0000     0.000     0.000     0.000 -0.0000  1.0000  0.0000
              Bcc     0.0000     0.000     0.000     0.000  0.0000  0.0000  1.0000
 
              Baa     0.0000     0.000     0.000     0.000  1.0000  0.0000  0.0000
     4 H(1)   Bbb     0.0000     0.000     0.000     0.000 -0.0000  1.0000  0.0000
              Bcc     0.0000     0.000     0.000     0.000  0.0000  0.0000  1.0000
 
              Baa     0.0000     0.000     0.000     0.000  1.0000  0.0000  0.0000
     5 H(1)   Bbb     0.0000     0.000     0.000     0.000 -0.0000  1.0000  0.0000
              Bcc     0.0000     0.000     0.000     0.000  0.0000  0.0000  1.0000
 
              Baa     0.0000     0.000     0.000     0.000  1.0000  0.0000  0.0000
     6 H(1)   Bbb     0.0000     0.000     0.000     0.000 -0.0000  1.0000  0.0000
              Bcc     0.0000     0.000     0.000     0.000  0.0000  0.0000  1.0000
 
              Baa     0.0000    -0.000    -0.000    -0.000  1.0000  0.0000  0.0000
     7 O(17)  Bbb     0.0000    -0.000    -0.000    -0.000 -0.0000  1.0000  0.0000
              Bcc     0.0000    -0.000    -0.000    -0.000  0.0000  0.0000  1.0000
 

 ---------------------------------------------------------------------------------

 1\1\GINC-NODE31\SP\UB3LYP\6-31+G(d)\C2H4O1\YANZ\12-Oct-2023\0\\# ub3ly
 p/6-31+g(d)\\tmpdir/M3_conf_0_36.gjf\\0,1\C,0,0.,0.,0.\C,0,1.5195,0.,0
 .\H,0,2.10092,0.,0.91547\H,0,-0.34036,0.8174,-0.65908\H,0,-0.33205,-0.
 886,-0.57405\H,0,-0.44044,0.06311,0.99757\O,0,2.00911,-0.02544,-1.0715
 7\\Version=ES64L-G16RevA.03\State=1-A\HF=-153.8295916\S2=0.\S2-1=0.\S2
 A=0.\RMSD=2.036e-09\Dipole=-0.5741829,0.0152588,0.8031851\Quadrupole=-
 0.516518,0.7398982,-0.2233803,0.0320826,1.80422,0.0022702\PG=C01 [X(C2
 H4O1)]\\@


 REALITY IS FOR PEOPLE WHO CAN'T FACE SCIENCE FICTION.
 Job cpu time:       0 days  0 hours  0 minutes 23.1 seconds.
 Elapsed time:       0 days  0 hours  0 minutes  6.0 seconds.
 File lengths (MBytes):  RWF=      6 Int=      0 D2E=      0 Chk=      1 Scr=      1
 Normal termination of Gaussian 16 at Thu Oct 12 15:30:01 2023.
