 Entering Gaussian System, Link 0=g16
 Initial command:
 /share/apps/gaussian/g16/l1.exe "/tmp/58287.mgr/Gau-22537.inp" -scrdir="/tmp/58287.mgr/"
 Entering Link 1 = /share/apps/gaussian/g16/l1.exe PID=     22538.
  
 Copyright (c) 1988,1990,1992,1993,1995,1998,2003,2009,2016,
            Gaussian, Inc.  All Rights Reserved.
  
 This is part of the Gaussian(R) 16 program.  It is based on
 the Gaussian(R) 09 system (copyright 2009, Gaussian, Inc.),
 the Gaussian(R) 03 system (copyright 2003, Gaussian, Inc.),
 the Gaussian(R) 98 system (copyright 1998, Gaussian, Inc.),
 the Gaussian(R) 94 system (copyright 1995, Gaussian, Inc.),
 the Gaussian 92(TM) system (copyright 1992, Gaussian, Inc.),
 the Gaussian 90(TM) system (copyright 1990, Gaussian, Inc.),
 the Gaussian 88(TM) system (copyright 1988, Gaussian, Inc.),
 the Gaussian 86(TM) system (copyright 1986, Carnegie Mellon
 University), and the Gaussian 82(TM) system (copyright 1983,
 Carnegie Mellon University). Gaussian is a federally registered
 trademark of Gaussian, Inc.
  
 This software contains proprietary and confidential information,
 including trade secrets, belonging to Gaussian, Inc.
  
 This software is provided under written license and may be
 used, copied, transmitted, or stored only in accord with that
 written license.
  
 The following legend is applicable only to US Government
 contracts under FAR:
  
                    RESTRICTED RIGHTS LEGEND
  
 Use, reproduction and disclosure by the US Government is
 subject to restrictions as set forth in subparagraphs (a)
 and (c) of the Commercial Computer Software - Restricted
 Rights clause in FAR 52.227-19.
  
 Gaussian, Inc.
 340 Quinnipiac St., Bldg. 40, Wallingford CT 06492
  
  
 ---------------------------------------------------------------
 Warning -- This program may not be used in any manner that
 competes with the business of Gaussian, Inc. or will provide
 assistance to any competitor of Gaussian, Inc.  The licensee
 of this program is prohibited from giving any competitor of
 Gaussian, Inc. access to this program.  By using this program,
 the user acknowledges that Gaussian, Inc. is engaged in the
 business of creating and licensing software in the field of
 computational chemistry and represents and warrants to the
 licensee that it is not a competitor of Gaussian, Inc. and that
 it will not use this program in any manner prohibited above.
 ---------------------------------------------------------------
  

 Cite this work as:
 Gaussian 16, Revision A.03,
 M. J. Frisch, G. W. Trucks, H. B. Schlegel, G. E. Scuseria, 
 M. A. Robb, J. R. Cheeseman, G. Scalmani, V. Barone, 
 G. A. Petersson, H. Nakatsuji, X. Li, M. Caricato, A. V. Marenich, 
 J. Bloino, B. G. Janesko, R. Gomperts, B. Mennucci, H. P. Hratchian, 
 J. V. Ortiz, A. F. Izmaylov, J. L. Sonnenberg, D. Williams-Young, 
 F. Ding, F. Lipparini, F. Egidi, J. Goings, B. Peng, A. Petrone, 
 T. Henderson, D. Ranasinghe, V. G. Zakrzewski, J. Gao, N. Rega, 
 G. Zheng, W. Liang, M. Hada, M. Ehara, K. Toyota, R. Fukuda, 
 J. Hasegawa, M. Ishida, T. Nakajima, Y. Honda, O. Kitao, H. Nakai, 
 T. Vreven, K. Throssell, J. A. Montgomery, Jr., J. E. Peralta, 
 F. Ogliaro, M. J. Bearpark, J. J. Heyd, E. N. Brothers, K. N. Kudin, 
 V. N. Staroverov, T. A. Keith, R. Kobayashi, J. Normand, 
 K. Raghavachari, A. P. Rendell, J. C. Burant, S. S. Iyengar, 
 J. Tomasi, M. Cossi, J. M. Millam, M. Klene, C. Adamo, R. Cammi, 
 J. W. Ochterski, R. L. Martin, K. Morokuma, O. Farkas, 
 J. B. Foresman, and D. J. Fox, Gaussian, Inc., Wallingford CT, 2016.
 
 ******************************************
 Gaussian 16:  ES64L-G16RevA.03 25-Dec-2016
                12-Oct-2023 
 ******************************************
 %nprocshared=4
 Will use up to    4 processors via shared memory.
 %mem=4GB
 ------------------
 # ub3lyp/6-31+g(d)
 ------------------
 1/38=1,172=1/1;
 2/12=2,17=6,18=5,40=1/2;
 3/5=1,6=6,7=11,11=2,25=1,30=1,74=-5,116=2/1,2,3;
 4//1;
 5/5=2,38=5/2;
 6/7=2,8=2,9=2,10=2,28=1/1;
 99/5=1,9=1/99;
 -----------------------
 tmpdir/M3_conf_0_23.gjf
 -----------------------
 Symbolic Z-matrix:
 Charge =  0 Multiplicity = 2
 C                     0.        0.        0. 
 C                     1.529     0.        0. 
 H                     2.07691   0.        0.94367 
 H                    -0.34422   0.06856  -1.04039 
 H                    -0.43635   0.76467   0.64619 
 H                    -0.19318  -1.02852   0.35756 
 H                     1.90578  -0.66029  -0.76415 
 
                          Input orientation:                          
 ---------------------------------------------------------------------
 Center     Atomic      Atomic             Coordinates (Angstroms)
 Number     Number       Type             X           Y           Z
 ---------------------------------------------------------------------
      1          6           0        0.000000    0.000000    0.000000
      2          6           0        1.529000    0.000000    0.000000
      3          1           0        2.076910    0.000000    0.943670
      4          1           0       -0.344220    0.068560   -1.040390
      5          1           0       -0.436350    0.764670    0.646190
      6          1           0       -0.193180   -1.028520    0.357560
      7          1           0        1.905780   -0.660290   -0.764150
 ---------------------------------------------------------------------
                    Distance matrix (angstroms):
                    1          2          3          4          5
     1  C    0.000000
     2  C    1.529000   0.000000
     3  H    2.281243   1.091200   0.000000
     4  H    1.097998   2.143844   3.130985   0.000000
     5  H    1.092100   2.205648   2.643802   1.826912   0.000000
     6  H    1.105903   2.037549   2.560212   1.783441   1.832476
     7  H    2.156828   1.077901   1.838999   2.381183   3.083041
                    6          7
     6  H    0.000000
     7  H    2.408207   0.000000
 Stoichiometry    C2H5(2)
 Framework group  C1[X(C2H5)]
 Deg. of freedom    15
 Full point group                 C1      NOp   1
 Largest Abelian subgroup         C1      NOp   1
 Largest concise Abelian subgroup C1      NOp   1
                         Standard orientation:                         
 ---------------------------------------------------------------------
 Center     Atomic      Atomic             Coordinates (Angstroms)
 Number     Number       Type             X           Y           Z
 ---------------------------------------------------------------------
      1          6           0        0.718261   -0.016106    0.004877
      2          6           0       -0.806337   -0.008331   -0.110804
      3          1           0       -1.385658   -0.870161    0.224392
      4          1           0        1.102472    0.907909   -0.446981
      5          1           0        1.182220   -0.916730   -0.402924
      6          1           0        0.829176    0.067360    1.102034
      7          1           0       -1.199751    0.958250    0.159043
 ---------------------------------------------------------------------
 Rotational constants (GHZ):          97.9871403          22.4664586          20.9829712
 Standard basis: 6-31+G(d) (6D, 7F)
 There are    48 symmetry adapted cartesian basis functions of A   symmetry.
 There are    48 symmetry adapted basis functions of A   symmetry.
    48 basis functions,    84 primitive gaussians,    48 cartesian basis functions
     9 alpha electrons        8 beta electrons
       nuclear repulsion energy        36.6797631555 Hartrees.
 NAtoms=    7 NActive=    7 NUniq=    7 SFac= 1.00D+00 NAtFMM=   60 NAOKFM=F Big=F
 Integral buffers will be    131072 words long.
 Raffenetti 2 integral format.
 Two-electron integral symmetry is turned on.
 One-electron integrals computed using PRISM.
 NBasis=    48 RedAO= T EigKep=  4.10D-04  NBF=    48
 NBsUse=    48 1.00D-06 EigRej= -1.00D+00 NBFU=    48
 ExpMin= 4.38D-02 ExpMax= 3.05D+03 ExpMxC= 4.57D+02 IAcc=3 IRadAn=         5 AccDes= 0.00D+00
 Harris functional with IExCor=  402 and IRadAn=       5 diagonalized for initial guess.
 HarFok:  IExCor=  402 AccDes= 0.00D+00 IRadAn=         5 IDoV= 1 UseB2=F ITyADJ=14
 ICtDFT=  3500011 ScaDFX=  1.000000  1.000000  1.000000  1.000000
 FoFCou: FMM=F IPFlag=           0 FMFlag=      100000 FMFlg1=           0
         NFxFlg=           0 DoJE=T BraDBF=F KetDBF=T FulRan=T
         wScrn=  0.000000 ICntrl=       500 IOpCl=  0 I1Cent=   200000004 NGrid=           0
         NMat0=    1 NMatS0=      1 NMatT0=    0 NMatD0=    1 NMtDS0=    0 NMtDT0=    0
 Petite list used in FoFCou.
 Initial guess <Sx>= 0.0000 <Sy>= 0.0000 <Sz>= 0.5000 <S**2>= 0.7500 S= 0.5000
 Keep R1 and R2 ints in memory in canonical form, NReq=4869967.
 Requested convergence on RMS density matrix=1.00D-08 within 128 cycles.
 Requested convergence on MAX density matrix=1.00D-06.
 Requested convergence on             energy=1.00D-06.
 No special actions if energy rises.
 SCF Done:  E(UB3LYP) =  -79.1546809377     A.U. after   12 cycles
            NFock= 12  Conv=0.43D-08     -V/T= 2.0109
 <Sx>= 0.0000 <Sy>= 0.0000 <Sz>= 0.5000 <S**2>= 0.7532 S= 0.5016
 <L.S>= 0.000000000000E+00
 Annihilation of the first spin contaminant:
 S**2 before annihilation     0.7532,   after     0.7500

 **********************************************************************

            Population analysis using the SCF density.

 **********************************************************************

 Orbital symmetries:
 Alpha Orbitals:
       Occupied  (A) (A) (A) (A) (A) (A) (A) (A) (A)
       Virtual   (A) (A) (A) (A) (A) (A) (A) (A) (A) (A) (A) (A)
                 (A) (A) (A) (A) (A) (A) (A) (A) (A) (A) (A) (A)
                 (A) (A) (A) (A) (A) (A) (A) (A) (A) (A) (A) (A)
                 (A) (A) (A)
 Beta  Orbitals:
       Occupied  (A) (A) (A) (A) (A) (A) (A) (A)
       Virtual   (A) (A) (A) (A) (A) (A) (A) (A) (A) (A) (A) (A)
                 (A) (A) (A) (A) (A) (A) (A) (A) (A) (A) (A) (A)
                 (A) (A) (A) (A) (A) (A) (A) (A) (A) (A) (A) (A)
                 (A) (A) (A) (A)
 The electronic state is 2-A.
 Alpha  occ. eigenvalues --  -10.19917 -10.19026  -0.75942  -0.60880  -0.45666
 Alpha  occ. eigenvalues --   -0.42363  -0.37637  -0.36633  -0.21354
 Alpha virt. eigenvalues --    0.01851   0.03217   0.05081   0.05803   0.08161
 Alpha virt. eigenvalues --    0.08867   0.09739   0.14885   0.17345   0.19369
 Alpha virt. eigenvalues --    0.22666   0.23423   0.25202   0.30174   0.62214
 Alpha virt. eigenvalues --    0.64103   0.66101   0.67494   0.68556   0.70745
 Alpha virt. eigenvalues --    0.90619   0.93405   0.94109   1.00422   1.02706
 Alpha virt. eigenvalues --    1.08656   1.28085   1.46835   1.56650   1.87543
 Alpha virt. eigenvalues --    1.90647   2.00346   2.18576   2.24264   2.28431
 Alpha virt. eigenvalues --    2.36743   2.61028   4.10031   4.32151
  Beta  occ. eigenvalues --  -10.19060 -10.18529  -0.74359  -0.58641  -0.45072
  Beta  occ. eigenvalues --   -0.40942  -0.36831  -0.36046
  Beta virt. eigenvalues --   -0.05842   0.02015   0.03406   0.05097   0.06229
  Beta virt. eigenvalues --    0.08142   0.08862   0.11129   0.15198   0.17918
  Beta virt. eigenvalues --    0.19532   0.23748   0.24682   0.26072   0.30709
  Beta virt. eigenvalues --    0.62833   0.64385   0.66850   0.69293   0.71526
  Beta virt. eigenvalues --    0.73570   0.92065   0.94050   0.94540   1.02149
  Beta virt. eigenvalues --    1.03366   1.09113   1.29334   1.49370   1.59598
  Beta virt. eigenvalues --    1.90985   1.93827   2.03104   2.22458   2.25593
  Beta virt. eigenvalues --    2.29505   2.37637   2.62484   4.12447   4.33315
          Condensed to atoms (all electrons):
               1          2          3          4          5          6
     1  C    5.417235   0.170952  -0.036619   0.408479   0.396452   0.389924
     2  C    0.170952   5.541385   0.375957  -0.065450  -0.050067  -0.071732
     3  H   -0.036619   0.375957   0.514639   0.003733  -0.003302  -0.001516
     4  H    0.408479  -0.065450   0.003733   0.508007  -0.023649  -0.032298
     5  H    0.396452  -0.050067  -0.003302  -0.023649   0.495484  -0.025701
     6  H    0.389924  -0.071732  -0.001516  -0.032298  -0.025701   0.536449
     7  H   -0.045449   0.376316  -0.034543  -0.005722   0.004180  -0.002081
               7
     1  C   -0.045449
     2  C    0.376316
     3  H   -0.034543
     4  H   -0.005722
     5  H    0.004180
     6  H   -0.002081
     7  H    0.531076
          Atomic-Atomic Spin Densities.
               1          2          3          4          5          6
     1  C   -0.001483  -0.119055  -0.008540  -0.000284  -0.001447   0.048988
     2  C   -0.119055   1.298561  -0.002780  -0.001738  -0.000372  -0.062904
     3  H   -0.008540  -0.002780  -0.032340   0.000139   0.000875  -0.001450
     4  H   -0.000284  -0.001738   0.000139   0.014923   0.002945  -0.008217
     5  H   -0.001447  -0.000372   0.000875   0.002945   0.013296  -0.007641
     6  H    0.048988  -0.062904  -0.001450  -0.008217  -0.007641   0.082823
     7  H   -0.006875  -0.003962   0.002414   0.001243   0.000059  -0.001436
               7
     1  C   -0.006875
     2  C   -0.003962
     3  H    0.002414
     4  H    0.001243
     5  H    0.000059
     6  H   -0.001436
     7  H   -0.035705
 Mulliken charges and spin densities:
               1          2
     1  C   -0.700973  -0.088696
     2  C   -0.277361   1.107750
     3  H    0.181651  -0.041683
     4  H    0.206900   0.009012
     5  H    0.206604   0.007714
     6  H    0.206955   0.050163
     7  H    0.176223  -0.044261
 Sum of Mulliken charges =   0.00000   1.00000
 Mulliken charges and spin densities with hydrogens summed into heavy atoms:
               1          2
     1  C   -0.080514  -0.021806
     2  C    0.080514   1.021806
 Electronic spatial extent (au):  <R**2>=            100.0189
 Charge=              0.0000 electrons
 Dipole moment (field-independent basis, Debye):
    X=              0.3660    Y=              0.0507    Z=              0.6131  Tot=              0.7159
 Quadrupole moment (field-independent basis, Debye-Ang):
   XX=            -15.3081   YY=            -13.7455   ZZ=            -15.5148
   XY=              0.0709   XZ=             -0.9649   YZ=              0.0160
 Traceless Quadrupole moment (field-independent basis, Debye-Ang):
   XX=             -0.4520   YY=              1.1106   ZZ=             -0.6587
   XY=              0.0709   XZ=             -0.9649   YZ=              0.0160
 Octapole moment (field-independent basis, Debye-Ang**2):
  XXX=              0.6958  YYY=              0.1716  ZZZ=              1.9780  XYY=              0.1319
  XXY=             -0.4641  XXZ=              0.7341  XZZ=              1.7077  YZZ=              0.1028
  YYZ=             -0.0144  XYZ=              0.1667
 Hexadecapole moment (field-independent basis, Debye-Ang**3):
 XXXX=            -91.9409 YYYY=            -30.0096 ZZZZ=            -27.8046 XXXY=              0.4717
 XXXZ=             -3.2057 YYYX=             -0.1323 YYYZ=             -0.0250 ZZZX=             -1.3353
 ZZZY=              0.0803 XXYY=            -18.2317 XXZZ=            -21.0760 YYZZ=             -9.9623
 XXYZ=             -0.0542 YYXZ=             -1.5857 ZZXY=              0.0729
 N-N= 3.667976315550D+01 E-N=-2.557162308801D+02  KE= 7.830218029496D+01
                          Isotropic Fermi Contact Couplings
        Atom                 a.u.       MegaHertz       Gauss      10(-4) cm-1
     1  C(13)             -0.01686     -18.95025      -6.76192      -6.32112
     2  C(13)              0.18562     208.66899      74.45828      69.60448
     3  H(1)              -0.00909     -40.63940     -14.50115     -13.55585
     4  H(1)               0.00537      24.02029       8.57104       8.01231
     5  H(1)               0.00447      19.96103       7.12259       6.65828
     6  H(1)               0.02774     123.99285      44.24373      41.35956
     7  H(1)              -0.00994     -44.43268     -15.85469     -14.82115
 --------------------------------------------------------
       Center         ----  Spin Dipole Couplings  ----
                      3XX-RR        3YY-RR        3ZZ-RR
 --------------------------------------------------------
     1   Atom        0.009110     -0.026737      0.017627
     2   Atom       -0.462888     -0.504911      0.967799
     3   Atom       -0.023952      0.023389      0.000563
     4   Atom        0.012963     -0.004211     -0.008752
     5   Atom        0.012487     -0.004283     -0.008203
     6   Atom        0.010176     -0.014515      0.004339
     7   Atom       -0.046217      0.048152     -0.001936
 --------------------------------------------------------
                        XY            XZ            YZ
 --------------------------------------------------------
     1   Atom       -0.001694      0.022032      0.000507
     2   Atom        0.002428      0.255438      0.025827
     3   Atom        0.058691     -0.008771     -0.025429
     4   Atom        0.012530     -0.001736     -0.001218
     5   Atom       -0.011416     -0.001008      0.000850
     6   Atom        0.000442      0.009470      0.001674
     7   Atom       -0.045490     -0.000285      0.025211
 --------------------------------------------------------


 ---------------------------------------------------------------------------------
              Anisotropic Spin Dipole Couplings in Principal Axis System
 ---------------------------------------------------------------------------------

       Atom             a.u.   MegaHertz   Gauss  10(-4) cm-1        Axes

              Baa    -0.0269    -3.609    -1.288    -1.204  0.0772  0.9958 -0.0495
     1 C(13)  Bbb    -0.0089    -1.197    -0.427    -0.399  0.7672 -0.0910 -0.6349
              Bcc     0.0358     4.806     1.715     1.603  0.6368 -0.0110  0.7710
 
              Baa    -0.5084   -68.228   -24.345   -22.758  0.8237  0.5462 -0.1521
     2 C(13)  Bbb    -0.5040   -67.637   -24.135   -22.561 -0.5407  0.8375  0.0792
              Bcc     1.0125   135.865    48.480    45.320  0.1706  0.0170  0.9852
 
              Baa    -0.0644   -34.349   -12.256   -11.458  0.8098 -0.5751 -0.1158
     3 H(1)   Bbb    -0.0081    -4.303    -1.536    -1.435  0.2877  0.2173  0.9328
              Bcc     0.0724    38.652    13.792    12.893  0.5113  0.7887 -0.3414
 
              Baa    -0.0109    -5.790    -2.066    -1.931 -0.4535  0.8808  0.1362
     4 H(1)   Bbb    -0.0089    -4.733    -1.689    -1.579  0.1283 -0.0867  0.9879
              Bcc     0.0197    10.523     3.755     3.510  0.8820  0.4655 -0.0737
 
              Baa    -0.0101    -5.395    -1.925    -1.800  0.4392  0.8837 -0.1616
     5 H(1)   Bbb    -0.0082    -4.383    -1.564    -1.462  0.1157  0.1228  0.9857
              Bcc     0.0183     9.779     3.489     3.262  0.8909 -0.4516 -0.0483
 
              Baa    -0.0147    -7.827    -2.793    -2.611  0.0194  0.9951 -0.0973
     6 H(1)   Bbb    -0.0026    -1.363    -0.486    -0.455 -0.5965  0.0896  0.7976
              Bcc     0.0172     9.190     3.279     3.066  0.8024  0.0426  0.5953
 
              Baa    -0.0660   -35.203   -12.561   -11.742  0.9063  0.3947 -0.1513
     7 H(1)   Bbb    -0.0079    -4.198    -1.498    -1.400  0.2527 -0.2189  0.9424
              Bcc     0.0738    39.401    14.059    13.143 -0.3388  0.8924  0.2981
 

 ---------------------------------------------------------------------------------

 1\1\GINC-NODE31\SP\UB3LYP\6-31+G(d)\C2H5(2)\YANZ\12-Oct-2023\0\\# ub3l
 yp/6-31+g(d)\\tmpdir/M3_conf_0_23.gjf\\0,2\C,0,0.,0.,0.\C,0,1.529,0.,0
 .\H,0,2.07691,0.,0.94367\H,0,-0.34422,0.06856,-1.04039\H,0,-0.43635,0.
 76467,0.64619\H,0,-0.19318,-1.02852,0.35756\H,0,1.90578,-0.66029,-0.76
 415\\Version=ES64L-G16RevA.03\State=2-A\HF=-79.1546809\S2=0.753169\S2-
 1=0.\S2A=0.750007\RMSD=4.321e-09\Dipole=-0.1617388,-0.2187235,0.072963
 \Quadrupole=-0.4456529,-0.1837666,0.6294195,-0.6415899,0.3318454,0.445
 855\PG=C01 [X(C2H5)]\\@


 THE UNDERLYING PHYSICAL LAWS NECESSARY FOR THE 
 MATHEMATICAL THEORY OF A LARGE PART OF PHYSICS AND THE
 WHOLE OF CHEMISTRY ARE THUS COMPLETELY KNOWN, AND THE
 DIFFICULTY IS ONLY THAT THE EXACT APPLICATION OF THESE
 LAWS LEADS TO EQUATIONS MUCH TOO COMPLICATED 
 TO BE SOLUBLE.

                                        -- P. A. M. DIRAC, 1929
 Job cpu time:       0 days  0 hours  0 minutes 18.8 seconds.
 Elapsed time:       0 days  0 hours  0 minutes  4.9 seconds.
 File lengths (MBytes):  RWF=      6 Int=      0 D2E=      0 Chk=      1 Scr=      1
 Normal termination of Gaussian 16 at Thu Oct 12 15:29:42 2023.
