 Entering Gaussian System, Link 0=g16
 Initial command:
 /share/apps/gaussian/g16/l1.exe "/tmp/58287.mgr/Gau-21954.inp" -scrdir="/tmp/58287.mgr/"
 Entering Link 1 = /share/apps/gaussian/g16/l1.exe PID=     21955.
  
 Copyright (c) 1988,1990,1992,1993,1995,1998,2003,2009,2016,
            Gaussian, Inc.  All Rights Reserved.
  
 This is part of the Gaussian(R) 16 program.  It is based on
 the Gaussian(R) 09 system (copyright 2009, Gaussian, Inc.),
 the Gaussian(R) 03 system (copyright 2003, Gaussian, Inc.),
 the Gaussian(R) 98 system (copyright 1998, Gaussian, Inc.),
 the Gaussian(R) 94 system (copyright 1995, Gaussian, Inc.),
 the Gaussian 92(TM) system (copyright 1992, Gaussian, Inc.),
 the Gaussian 90(TM) system (copyright 1990, Gaussian, Inc.),
 the Gaussian 88(TM) system (copyright 1988, Gaussian, Inc.),
 the Gaussian 86(TM) system (copyright 1986, Carnegie Mellon
 University), and the Gaussian 82(TM) system (copyright 1983,
 Carnegie Mellon University). Gaussian is a federally registered
 trademark of Gaussian, Inc.
  
 This software contains proprietary and confidential information,
 including trade secrets, belonging to Gaussian, Inc.
  
 This software is provided under written license and may be
 used, copied, transmitted, or stored only in accord with that
 written license.
  
 The following legend is applicable only to US Government
 contracts under FAR:
  
                    RESTRICTED RIGHTS LEGEND
  
 Use, reproduction and disclosure by the US Government is
 subject to restrictions as set forth in subparagraphs (a)
 and (c) of the Commercial Computer Software - Restricted
 Rights clause in FAR 52.227-19.
  
 Gaussian, Inc.
 340 Quinnipiac St., Bldg. 40, Wallingford CT 06492
  
  
 ---------------------------------------------------------------
 Warning -- This program may not be used in any manner that
 competes with the business of Gaussian, Inc. or will provide
 assistance to any competitor of Gaussian, Inc.  The licensee
 of this program is prohibited from giving any competitor of
 Gaussian, Inc. access to this program.  By using this program,
 the user acknowledges that Gaussian, Inc. is engaged in the
 business of creating and licensing software in the field of
 computational chemistry and represents and warrants to the
 licensee that it is not a competitor of Gaussian, Inc. and that
 it will not use this program in any manner prohibited above.
 ---------------------------------------------------------------
  

 Cite this work as:
 Gaussian 16, Revision A.03,
 M. J. Frisch, G. W. Trucks, H. B. Schlegel, G. E. Scuseria, 
 M. A. Robb, J. R. Cheeseman, G. Scalmani, V. Barone, 
 G. A. Petersson, H. Nakatsuji, X. Li, M. Caricato, A. V. Marenich, 
 J. Bloino, B. G. Janesko, R. Gomperts, B. Mennucci, H. P. Hratchian, 
 J. V. Ortiz, A. F. Izmaylov, J. L. Sonnenberg, D. Williams-Young, 
 F. Ding, F. Lipparini, F. Egidi, J. Goings, B. Peng, A. Petrone, 
 T. Henderson, D. Ranasinghe, V. G. Zakrzewski, J. Gao, N. Rega, 
 G. Zheng, W. Liang, M. Hada, M. Ehara, K. Toyota, R. Fukuda, 
 J. Hasegawa, M. Ishida, T. Nakajima, Y. Honda, O. Kitao, H. Nakai, 
 T. Vreven, K. Throssell, J. A. Montgomery, Jr., J. E. Peralta, 
 F. Ogliaro, M. J. Bearpark, J. J. Heyd, E. N. Brothers, K. N. Kudin, 
 V. N. Staroverov, T. A. Keith, R. Kobayashi, J. Normand, 
 K. Raghavachari, A. P. Rendell, J. C. Burant, S. S. Iyengar, 
 J. Tomasi, M. Cossi, J. M. Millam, M. Klene, C. Adamo, R. Cammi, 
 J. W. Ochterski, R. L. Martin, K. Morokuma, O. Farkas, 
 J. B. Foresman, and D. J. Fox, Gaussian, Inc., Wallingford CT, 2016.
 
 ******************************************
 Gaussian 16:  ES64L-G16RevA.03 25-Dec-2016
                12-Oct-2023 
 ******************************************
 %nprocshared=4
 Will use up to    4 processors via shared memory.
 %mem=4GB
 ------------------
 # ub3lyp/6-31+g(d)
 ------------------
 1/38=1,172=1/1;
 2/12=2,17=6,18=5,40=1/2;
 3/5=1,6=6,7=11,11=2,25=1,30=1,74=-5,116=2/1,2,3;
 4//1;
 5/5=2,38=5/2;
 6/7=2,8=2,9=2,10=2,28=1/1;
 99/5=1,9=1/99;
 -----------------------
 tmpdir/M3_conf_0_10.gjf
 -----------------------
 Symbolic Z-matrix:
 Charge =  0 Multiplicity = 1
 H                     0.        0.        0. 
 C                     1.0923    0.        0. 
 C                     1.71663   0.        1.38531 
 H                     1.50972   0.85737  -0.55593 
 H                     1.53395  -0.84804  -0.55727 
 O                     2.89426   0.04208   1.39162 
 H                     1.10436  -0.05853   2.27853 
 
                          Input orientation:                          
 ---------------------------------------------------------------------
 Center     Atomic      Atomic             Coordinates (Angstroms)
 Number     Number       Type             X           Y           Z
 ---------------------------------------------------------------------
      1          1           0        0.000000    0.000000    0.000000
      2          6           0        1.092300    0.000000    0.000000
      3          6           0        1.716630    0.000000    1.385310
      4          1           0        1.509720    0.857370   -0.555930
      5          1           0        1.533950   -0.848040   -0.557270
      6          8           0        2.894260    0.042080    1.391620
      7          1           0        1.104360   -0.058530    2.278530
 ---------------------------------------------------------------------
                    Distance matrix (angstroms):
                    1          2          3          4          5
     1  H    0.000000
     2  C    1.092300   0.000000
     3  C    2.205879   1.519497   0.000000
     4  H    1.823018   1.103803   2.132207   0.000000
     5  H    1.839218   1.106696   2.127478   1.705583   0.000000
     6  O    3.211716   2.277155   1.178398   2.524797   2.537899
     7  H    2.532733   2.279314   1.084501   3.006219   2.974834
                    6          7
     6  O    0.000000
     7  H    2.000118   0.000000
 Stoichiometry    C2H4O
 Framework group  C1[X(C2H4O)]
 Deg. of freedom    15
 Full point group                 C1      NOp   1
 Largest Abelian subgroup         C1      NOp   1
 Largest concise Abelian subgroup C1      NOp   1
                         Standard orientation:                         
 ---------------------------------------------------------------------
 Center     Atomic      Atomic             Coordinates (Angstroms)
 Number     Number       Type             X           Y           Z
 ---------------------------------------------------------------------
      1          1           0       -1.931856    0.623632   -0.039515
      2          6           0       -1.132306   -0.119476    0.000868
      3          6           0        0.268335    0.469646   -0.002728
      4          1           0       -1.193480   -0.843997   -0.829619
      5          1           0       -1.200458   -0.794473    0.875230
      6          8           0        1.135230   -0.328548   -0.001356
      7          1           0        0.427783    1.542199    0.015913
 ---------------------------------------------------------------------
 Rotational constants (GHZ):          50.0572458          11.2610743           9.7115046
 Standard basis: 6-31+G(d) (6D, 7F)
 There are    65 symmetry adapted cartesian basis functions of A   symmetry.
 There are    65 symmetry adapted basis functions of A   symmetry.
    65 basis functions,   112 primitive gaussians,    65 cartesian basis functions
    12 alpha electrons       12 beta electrons
       nuclear repulsion energy        70.8712419016 Hartrees.
 NAtoms=    7 NActive=    7 NUniq=    7 SFac= 1.00D+00 NAtFMM=   60 NAOKFM=F Big=F
 Integral buffers will be    131072 words long.
 Raffenetti 2 integral format.
 Two-electron integral symmetry is turned on.
 One-electron integrals computed using PRISM.
 NBasis=    65 RedAO= T EigKep=  3.26D-04  NBF=    65
 NBsUse=    65 1.00D-06 EigRej= -1.00D+00 NBFU=    65
 ExpMin= 4.38D-02 ExpMax= 5.48D+03 ExpMxC= 8.25D+02 IAcc=3 IRadAn=         5 AccDes= 0.00D+00
 Harris functional with IExCor=  402 and IRadAn=       5 diagonalized for initial guess.
 HarFok:  IExCor=  402 AccDes= 0.00D+00 IRadAn=         5 IDoV= 1 UseB2=F ITyADJ=14
 ICtDFT=  3500011 ScaDFX=  1.000000  1.000000  1.000000  1.000000
 FoFCou: FMM=F IPFlag=           0 FMFlag=      100000 FMFlg1=           0
         NFxFlg=           0 DoJE=T BraDBF=F KetDBF=T FulRan=T
         wScrn=  0.000000 ICntrl=       500 IOpCl=  0 I1Cent=   200000004 NGrid=           0
         NMat0=    1 NMatS0=      1 NMatT0=    0 NMatD0=    1 NMtDS0=    0 NMtDT0=    0
 Petite list used in FoFCou.
 Initial guess <Sx>= 0.0000 <Sy>= 0.0000 <Sz>= 0.0000 <S**2>= 0.0000 S= 0.0000
 Keep R1 and R2 ints in memory in canonical form, NReq=8155533.
 Requested convergence on RMS density matrix=1.00D-08 within 128 cycles.
 Requested convergence on MAX density matrix=1.00D-06.
 Requested convergence on             energy=1.00D-06.
 No special actions if energy rises.
 SCF Done:  E(UB3LYP) =  -153.829627802     A.U. after   11 cycles
            NFock= 11  Conv=0.20D-08     -V/T= 2.0085
 <Sx>= 0.0000 <Sy>= 0.0000 <Sz>= 0.0000 <S**2>=-0.0000 S=-0.0000
 <L.S>= 0.000000000000E+00
 Annihilation of the first spin contaminant:
 S**2 before annihilation    -0.0000,   after    -0.0000

 **********************************************************************

            Population analysis using the SCF density.

 **********************************************************************

 Orbital symmetries:
 Alpha Orbitals:
       Occupied  (A) (A) (A) (A) (A) (A) (A) (A) (A) (A) (A) (A)
       Virtual   (A) (A) (A) (A) (A) (A) (A) (A) (A) (A) (A) (A)
                 (A) (A) (A) (A) (A) (A) (A) (A) (A) (A) (A) (A)
                 (A) (A) (A) (A) (A) (A) (A) (A) (A) (A) (A) (A)
                 (A) (A) (A) (A) (A) (A) (A) (A) (A) (A) (A) (A)
                 (A) (A) (A) (A) (A)
 Beta  Orbitals:
       Occupied  (A) (A) (A) (A) (A) (A) (A) (A) (A) (A) (A) (A)
       Virtual   (A) (A) (A) (A) (A) (A) (A) (A) (A) (A) (A) (A)
                 (A) (A) (A) (A) (A) (A) (A) (A) (A) (A) (A) (A)
                 (A) (A) (A) (A) (A) (A) (A) (A) (A) (A) (A) (A)
                 (A) (A) (A) (A) (A) (A) (A) (A) (A) (A) (A) (A)
                 (A) (A) (A) (A) (A)
 The electronic state is 1-A.
 Alpha  occ. eigenvalues --  -19.16268 -10.28711 -10.19939  -1.08060  -0.74856
 Alpha  occ. eigenvalues --   -0.59960  -0.49071  -0.44933  -0.44506  -0.41583
 Alpha  occ. eigenvalues --   -0.36931  -0.26584
 Alpha virt. eigenvalues --   -0.03895   0.01249   0.02391   0.04740   0.05086
 Alpha virt. eigenvalues --    0.07427   0.07674   0.09398   0.14225   0.17017
 Alpha virt. eigenvalues --    0.17493   0.20542   0.23024   0.24893   0.25549
 Alpha virt. eigenvalues --    0.28535   0.30006   0.33679   0.40423   0.63435
 Alpha virt. eigenvalues --    0.65290   0.67560   0.67946   0.75654   0.76579
 Alpha virt. eigenvalues --    0.89206   0.91673   1.01418   1.05250   1.08360
 Alpha virt. eigenvalues --    1.17282   1.20233   1.23194   1.31327   1.38095
 Alpha virt. eigenvalues --    1.52245   1.55086   1.71684   1.79191   1.80723
 Alpha virt. eigenvalues --    1.89630   2.06334   2.16078   2.22019   2.25955
 Alpha virt. eigenvalues --    2.36951   2.59853   2.60562   2.87616   3.05979
 Alpha virt. eigenvalues --    4.10770   4.18327   4.38696
  Beta  occ. eigenvalues --  -19.16268 -10.28711 -10.19939  -1.08060  -0.74856
  Beta  occ. eigenvalues --   -0.59960  -0.49071  -0.44933  -0.44506  -0.41583
  Beta  occ. eigenvalues --   -0.36931  -0.26584
  Beta virt. eigenvalues --   -0.03895   0.01249   0.02391   0.04740   0.05086
  Beta virt. eigenvalues --    0.07427   0.07674   0.09398   0.14225   0.17017
  Beta virt. eigenvalues --    0.17493   0.20542   0.23024   0.24893   0.25549
  Beta virt. eigenvalues --    0.28535   0.30006   0.33679   0.40423   0.63435
  Beta virt. eigenvalues --    0.65290   0.67560   0.67946   0.75654   0.76579
  Beta virt. eigenvalues --    0.89206   0.91673   1.01418   1.05250   1.08360
  Beta virt. eigenvalues --    1.17282   1.20233   1.23194   1.31327   1.38095
  Beta virt. eigenvalues --    1.52245   1.55086   1.71684   1.79191   1.80723
  Beta virt. eigenvalues --    1.89630   2.06334   2.16078   2.22019   2.25955
  Beta virt. eigenvalues --    2.36951   2.59853   2.60562   2.87616   3.05979
  Beta virt. eigenvalues --    4.10770   4.18327   4.38696
          Condensed to atoms (all electrons):
               1          2          3          4          5          6
     1  H    0.509902   0.360436  -0.037699  -0.022970  -0.021568   0.009354
     2  C    0.360436   5.682789   0.179506   0.386649   0.383635  -0.144234
     3  C   -0.037699   0.179506   4.840404  -0.034475  -0.031504   0.447379
     4  H   -0.022970   0.386649  -0.034475   0.468758  -0.028169  -0.009369
     5  H   -0.021568   0.383635  -0.031504  -0.028169   0.469279  -0.010162
     6  O    0.009354  -0.144234   0.447379  -0.009369  -0.010162   8.116584
     7  H    0.005811  -0.114366   0.390259   0.002031   0.001915  -0.064242
               7
     1  H    0.005811
     2  C   -0.114366
     3  C    0.390259
     4  H    0.002031
     5  H    0.001915
     6  O   -0.064242
     7  H    0.615856
          Atomic-Atomic Spin Densities.
               1          2          3          4          5          6
     1  H   -0.000000   0.000000  -0.000000  -0.000000  -0.000000  -0.000000
     2  C    0.000000   0.000000  -0.000000   0.000000   0.000000   0.000000
     3  C   -0.000000  -0.000000  -0.000000  -0.000000  -0.000000   0.000000
     4  H   -0.000000   0.000000  -0.000000  -0.000000  -0.000000  -0.000000
     5  H   -0.000000   0.000000  -0.000000  -0.000000  -0.000000   0.000000
     6  O   -0.000000   0.000000   0.000000  -0.000000   0.000000  -0.000000
     7  H   -0.000000   0.000000  -0.000000  -0.000000  -0.000000   0.000000
               7
     1  H   -0.000000
     2  C    0.000000
     3  C   -0.000000
     4  H   -0.000000
     5  H   -0.000000
     6  O    0.000000
     7  H    0.000000
 Mulliken charges and spin densities:
               1          2
     1  H    0.196735  -0.000000
     2  C   -0.734415   0.000000
     3  C    0.246132  -0.000000
     4  H    0.237546  -0.000000
     5  H    0.236576  -0.000000
     6  O   -0.345310  -0.000000
     7  H    0.162736   0.000000
 Sum of Mulliken charges =  -0.00000  -0.00000
 Mulliken charges and spin densities with hydrogens summed into heavy atoms:
               1          2
     2  C   -0.063558   0.000000
     3  C    0.408868  -0.000000
     6  O   -0.345310  -0.000000
 Electronic spatial extent (au):  <R**2>=            160.7711
 Charge=             -0.0000 electrons
 Dipole moment (field-independent basis, Debye):
    X=             -2.1339    Y=              1.3194    Z=              0.0085  Tot=              2.5089
 Quadrupole moment (field-independent basis, Debye-Ang):
   XX=            -21.5414   YY=            -17.7752   ZZ=            -18.1567
   XY=              1.5084   XZ=              0.0262   YZ=             -0.0285
 Traceless Quadrupole moment (field-independent basis, Debye-Ang):
   XX=             -2.3836   YY=              1.3826   ZZ=              1.0011
   XY=              1.5084   XZ=              0.0262   YZ=             -0.0285
 Octapole moment (field-independent basis, Debye-Ang**2):
  XXX=             -0.3619  YYY=              0.5854  ZZZ=              0.0650  XYY=              0.6296
  XXY=              1.1191  XXZ=             -0.0878  XZZ=              1.3711  YZZ=             -1.0365
  YYZ=             -0.0180  XYZ=              0.0533
 Hexadecapole moment (field-independent basis, Debye-Ang**3):
 XXXX=           -145.7772 YYYY=            -47.5115 ZZZZ=            -24.4646 XXXY=             -1.8723
 XXXZ=              0.2335 YYYX=              0.5222 YYYZ=              0.0632 ZZZX=             -0.0656
 ZZZY=             -0.0841 XXYY=            -29.9166 XXZZ=            -27.4804 YYZZ=            -11.5236
 XXYZ=             -0.1064 YYXZ=              0.0843 ZZXY=              0.6534
 N-N= 7.087124190160D+01 E-N=-5.007645771641D+02  KE= 1.525392689040D+02
                          Isotropic Fermi Contact Couplings
        Atom                 a.u.       MegaHertz       Gauss      10(-4) cm-1
     1  H(1)               0.00000       0.00000       0.00000       0.00000
     2  C(13)             -0.00000      -0.00000      -0.00000      -0.00000
     3  C(13)              0.00000       0.00000       0.00000       0.00000
     4  H(1)              -0.00000      -0.00000      -0.00000      -0.00000
     5  H(1)              -0.00000      -0.00000      -0.00000      -0.00000
     6  O(17)             -0.00000       0.00000       0.00000       0.00000
     7  H(1)               0.00000       0.00000       0.00000       0.00000
 --------------------------------------------------------
       Center         ----  Spin Dipole Couplings  ----
                      3XX-RR        3YY-RR        3ZZ-RR
 --------------------------------------------------------
     1   Atom        0.000000      0.000000      0.000000
     2   Atom        0.000000      0.000000      0.000000
     3   Atom        0.000000      0.000000      0.000000
     4   Atom        0.000000      0.000000      0.000000
     5   Atom        0.000000      0.000000      0.000000
     6   Atom        0.000000      0.000000      0.000000
     7   Atom        0.000000      0.000000      0.000000
 --------------------------------------------------------
                        XY            XZ            YZ
 --------------------------------------------------------
     1   Atom        0.000000      0.000000      0.000000
     2   Atom        0.000000      0.000000      0.000000
     3   Atom        0.000000      0.000000      0.000000
     4   Atom        0.000000      0.000000      0.000000
     5   Atom        0.000000      0.000000      0.000000
     6   Atom        0.000000      0.000000      0.000000
     7   Atom        0.000000      0.000000      0.000000
 --------------------------------------------------------


 ---------------------------------------------------------------------------------
              Anisotropic Spin Dipole Couplings in Principal Axis System
 ---------------------------------------------------------------------------------

       Atom             a.u.   MegaHertz   Gauss  10(-4) cm-1        Axes

              Baa     0.0000     0.000     0.000     0.000  1.0000  0.0000  0.0000
     1 H(1)   Bbb     0.0000     0.000     0.000     0.000 -0.0000  1.0000  0.0000
              Bcc     0.0000     0.000     0.000     0.000  0.0000  0.0000  1.0000
 
              Baa     0.0000     0.000     0.000     0.000  1.0000  0.0000  0.0000
     2 C(13)  Bbb     0.0000     0.000     0.000     0.000 -0.0000  1.0000  0.0000
              Bcc     0.0000     0.000     0.000     0.000  0.0000  0.0000  1.0000
 
              Baa     0.0000     0.000     0.000     0.000  1.0000  0.0000  0.0000
     3 C(13)  Bbb     0.0000     0.000     0.000     0.000 -0.0000  1.0000  0.0000
              Bcc     0.0000     0.000     0.000     0.000  0.0000  0.0000  1.0000
 
              Baa     0.0000     0.000     0.000     0.000  1.0000  0.0000  0.0000
     4 H(1)   Bbb     0.0000     0.000     0.000     0.000 -0.0000  1.0000  0.0000
              Bcc     0.0000     0.000     0.000     0.000  0.0000  0.0000  1.0000
 
              Baa     0.0000     0.000     0.000     0.000  1.0000  0.0000  0.0000
     5 H(1)   Bbb     0.0000     0.000     0.000     0.000 -0.0000  1.0000  0.0000
              Bcc     0.0000     0.000     0.000     0.000  0.0000  0.0000  1.0000
 
              Baa     0.0000    -0.000    -0.000    -0.000  1.0000  0.0000  0.0000
     6 O(17)  Bbb     0.0000    -0.000    -0.000    -0.000 -0.0000  1.0000  0.0000
              Bcc     0.0000    -0.000    -0.000    -0.000  0.0000  0.0000  1.0000
 
              Baa     0.0000     0.000     0.000     0.000  1.0000  0.0000  0.0000
     7 H(1)   Bbb     0.0000     0.000     0.000     0.000 -0.0000  1.0000  0.0000
              Bcc     0.0000     0.000     0.000     0.000  0.0000  0.0000  1.0000
 

 ---------------------------------------------------------------------------------

 1\1\GINC-NODE31\SP\UB3LYP\6-31+G(d)\C2H4O1\YANZ\12-Oct-2023\0\\# ub3ly
 p/6-31+g(d)\\tmpdir/M3_conf_0_10.gjf\\0,1\H,0,0.,0.,0.\C,0,1.0923,0.,0
 .\C,0,1.71663,0.,1.38531\H,0,1.50972,0.85737,-0.55593\H,0,1.53395,-0.8
 4804,-0.55727\O,0,2.89426,0.04208,1.39162\H,0,1.10436,-0.05853,2.27853
 \\Version=ES64L-G16RevA.03\State=1-A\HF=-153.8296278\S2=0.\S2-1=0.\S2A
 =0.\RMSD=1.992e-09\Dipole=-0.9675757,-0.0354405,-0.1920337\Quadrupole=
 -1.5875866,0.7407718,0.8468148,-0.0896338,-1.3154828,-0.0484446\PG=C01
  [X(C2H4O1)]\\@


 ALL OUR THINKING ABOUT NATURE MUST NECESSARILY MOVE IN CIRCLES OR SPIRALS;
 FOR WE CAN ONLY UNDERSTAND NATURE IF WE THINK ABOUT HER, AND WE CAN ONLY
 THINK BECAUSE OUR BRAIN IS BUILT IN ACCORDANCE WITH NATURE'S LAWS.

                                             -- TIMOTHY FERRIS, "GALAXIES"
 Job cpu time:       0 days  0 hours  0 minutes 24.2 seconds.
 Elapsed time:       0 days  0 hours  0 minutes  6.3 seconds.
 File lengths (MBytes):  RWF=      6 Int=      0 D2E=      0 Chk=      1 Scr=      1
 Normal termination of Gaussian 16 at Thu Oct 12 15:27:44 2023.
