 Entering Gaussian System, Link 0=g16
 Initial command:
 /share/apps/gaussian/g16/l1.exe "/tmp/58287.mgr/Gau-22305.inp" -scrdir="/tmp/58287.mgr/"
 Entering Link 1 = /share/apps/gaussian/g16/l1.exe PID=     22306.
  
 Copyright (c) 1988,1990,1992,1993,1995,1998,2003,2009,2016,
            Gaussian, Inc.  All Rights Reserved.
  
 This is part of the Gaussian(R) 16 program.  It is based on
 the Gaussian(R) 09 system (copyright 2009, Gaussian, Inc.),
 the Gaussian(R) 03 system (copyright 2003, Gaussian, Inc.),
 the Gaussian(R) 98 system (copyright 1998, Gaussian, Inc.),
 the Gaussian(R) 94 system (copyright 1995, Gaussian, Inc.),
 the Gaussian 92(TM) system (copyright 1992, Gaussian, Inc.),
 the Gaussian 90(TM) system (copyright 1990, Gaussian, Inc.),
 the Gaussian 88(TM) system (copyright 1988, Gaussian, Inc.),
 the Gaussian 86(TM) system (copyright 1986, Carnegie Mellon
 University), and the Gaussian 82(TM) system (copyright 1983,
 Carnegie Mellon University). Gaussian is a federally registered
 trademark of Gaussian, Inc.
  
 This software contains proprietary and confidential information,
 including trade secrets, belonging to Gaussian, Inc.
  
 This software is provided under written license and may be
 used, copied, transmitted, or stored only in accord with that
 written license.
  
 The following legend is applicable only to US Government
 contracts under FAR:
  
                    RESTRICTED RIGHTS LEGEND
  
 Use, reproduction and disclosure by the US Government is
 subject to restrictions as set forth in subparagraphs (a)
 and (c) of the Commercial Computer Software - Restricted
 Rights clause in FAR 52.227-19.
  
 Gaussian, Inc.
 340 Quinnipiac St., Bldg. 40, Wallingford CT 06492
  
  
 ---------------------------------------------------------------
 Warning -- This program may not be used in any manner that
 competes with the business of Gaussian, Inc. or will provide
 assistance to any competitor of Gaussian, Inc.  The licensee
 of this program is prohibited from giving any competitor of
 Gaussian, Inc. access to this program.  By using this program,
 the user acknowledges that Gaussian, Inc. is engaged in the
 business of creating and licensing software in the field of
 computational chemistry and represents and warrants to the
 licensee that it is not a competitor of Gaussian, Inc. and that
 it will not use this program in any manner prohibited above.
 ---------------------------------------------------------------
  

 Cite this work as:
 Gaussian 16, Revision A.03,
 M. J. Frisch, G. W. Trucks, H. B. Schlegel, G. E. Scuseria, 
 M. A. Robb, J. R. Cheeseman, G. Scalmani, V. Barone, 
 G. A. Petersson, H. Nakatsuji, X. Li, M. Caricato, A. V. Marenich, 
 J. Bloino, B. G. Janesko, R. Gomperts, B. Mennucci, H. P. Hratchian, 
 J. V. Ortiz, A. F. Izmaylov, J. L. Sonnenberg, D. Williams-Young, 
 F. Ding, F. Lipparini, F. Egidi, J. Goings, B. Peng, A. Petrone, 
 T. Henderson, D. Ranasinghe, V. G. Zakrzewski, J. Gao, N. Rega, 
 G. Zheng, W. Liang, M. Hada, M. Ehara, K. Toyota, R. Fukuda, 
 J. Hasegawa, M. Ishida, T. Nakajima, Y. Honda, O. Kitao, H. Nakai, 
 T. Vreven, K. Throssell, J. A. Montgomery, Jr., J. E. Peralta, 
 F. Ogliaro, M. J. Bearpark, J. J. Heyd, E. N. Brothers, K. N. Kudin, 
 V. N. Staroverov, T. A. Keith, R. Kobayashi, J. Normand, 
 K. Raghavachari, A. P. Rendell, J. C. Burant, S. S. Iyengar, 
 J. Tomasi, M. Cossi, J. M. Millam, M. Klene, C. Adamo, R. Cammi, 
 J. W. Ochterski, R. L. Martin, K. Morokuma, O. Farkas, 
 J. B. Foresman, and D. J. Fox, Gaussian, Inc., Wallingford CT, 2016.
 
 ******************************************
 Gaussian 16:  ES64L-G16RevA.03 25-Dec-2016
                12-Oct-2023 
 ******************************************
 %nprocshared=4
 Will use up to    4 processors via shared memory.
 %mem=4GB
 ------------------
 # ub3lyp/6-31+g(d)
 ------------------
 1/38=1,172=1/1;
 2/12=2,17=6,18=5,40=1/2;
 3/5=1,6=6,7=11,11=2,25=1,30=1,74=-5,116=2/1,2,3;
 4//1;
 5/5=2,38=5/2;
 6/7=2,8=2,9=2,10=2,28=1/1;
 99/5=1,9=1/99;
 -----------------------
 tmpdir/M3_conf_0_19.gjf
 -----------------------
 Symbolic Z-matrix:
 Charge =  0 Multiplicity = 1
 H                     0.        0.        0. 
 C                     1.0921    0.        0. 
 C                     1.71911   0.        1.39321 
 H                     1.52218  -0.84651  -0.55141 
 H                     1.53432   0.93361  -0.39726 
 O                     2.89736  -0.01797   1.39882 
 H                     1.10421   0.08136   2.2838 
 
                          Input orientation:                          
 ---------------------------------------------------------------------
 Center     Atomic      Atomic             Coordinates (Angstroms)
 Number     Number       Type             X           Y           Z
 ---------------------------------------------------------------------
      1          1           0        0.000000    0.000000    0.000000
      2          6           0        1.092100    0.000000    0.000000
      3          6           0        1.719110    0.000000    1.393210
      4          1           0        1.522180   -0.846510   -0.551410
      5          1           0        1.534320    0.933610   -0.397260
      6          8           0        2.897360   -0.017970    1.398820
      7          1           0        1.104210    0.081360    2.283800
 ---------------------------------------------------------------------
                    Distance matrix (angstroms):
                    1          2          3          4          5
     1  H    0.000000
     2  C    1.092100   0.000000
     3  C    2.212775   1.527801   0.000000
     4  H    1.826928   1.097999   2.130002   0.000000
     5  H    1.839451   1.106798   2.027698   1.786823   0.000000
     6  O    3.217408   2.283853   1.178400   2.526063   2.447302
     7  H    2.538039   2.285281   1.085298   3.012318   2.845946
                    6          7
     6  O    0.000000
     7  H    2.002110   0.000000
 Stoichiometry    C2H4O
 Framework group  C1[X(C2H4O)]
 Deg. of freedom    15
 Full point group                 C1      NOp   1
 Largest Abelian subgroup         C1      NOp   1
 Largest concise Abelian subgroup C1      NOp   1
                         Standard orientation:                         
 ---------------------------------------------------------------------
 Center     Atomic      Atomic             Coordinates (Angstroms)
 Number     Number       Type             X           Y           Z
 ---------------------------------------------------------------------
      1          1           0        1.946911    0.598496   -0.037234
      2          6           0        1.140500   -0.137100   -0.001435
      3          6           0       -0.261979    0.468623   -0.019584
      4          1           0        1.190126   -0.869747   -0.817747
      5          1           0        1.086963   -0.688313    0.956845
      6          8           0       -1.135885   -0.321626    0.000930
      7          1           0       -0.408045    1.543432    0.016805
 ---------------------------------------------------------------------
 Rotational constants (GHZ):          50.1775235          11.2321994           9.7448347
 Standard basis: 6-31+G(d) (6D, 7F)
 There are    65 symmetry adapted cartesian basis functions of A   symmetry.
 There are    65 symmetry adapted basis functions of A   symmetry.
    65 basis functions,   112 primitive gaussians,    65 cartesian basis functions
    12 alpha electrons       12 beta electrons
       nuclear repulsion energy        70.8995087796 Hartrees.
 NAtoms=    7 NActive=    7 NUniq=    7 SFac= 1.00D+00 NAtFMM=   60 NAOKFM=F Big=F
 Integral buffers will be    131072 words long.
 Raffenetti 2 integral format.
 Two-electron integral symmetry is turned on.
 One-electron integrals computed using PRISM.
 NBasis=    65 RedAO= T EigKep=  3.39D-04  NBF=    65
 NBsUse=    65 1.00D-06 EigRej= -1.00D+00 NBFU=    65
 ExpMin= 4.38D-02 ExpMax= 5.48D+03 ExpMxC= 8.25D+02 IAcc=3 IRadAn=         5 AccDes= 0.00D+00
 Harris functional with IExCor=  402 and IRadAn=       5 diagonalized for initial guess.
 HarFok:  IExCor=  402 AccDes= 0.00D+00 IRadAn=         5 IDoV= 1 UseB2=F ITyADJ=14
 ICtDFT=  3500011 ScaDFX=  1.000000  1.000000  1.000000  1.000000
 FoFCou: FMM=F IPFlag=           0 FMFlag=      100000 FMFlg1=           0
         NFxFlg=           0 DoJE=T BraDBF=F KetDBF=T FulRan=T
         wScrn=  0.000000 ICntrl=       500 IOpCl=  0 I1Cent=   200000004 NGrid=           0
         NMat0=    1 NMatS0=      1 NMatT0=    0 NMatD0=    1 NMtDS0=    0 NMtDT0=    0
 Petite list used in FoFCou.
 Initial guess <Sx>= 0.0000 <Sy>= 0.0000 <Sz>= 0.0000 <S**2>=-0.0000 S=-0.0000
 Keep R1 and R2 ints in memory in canonical form, NReq=8155533.
 Requested convergence on RMS density matrix=1.00D-08 within 128 cycles.
 Requested convergence on MAX density matrix=1.00D-06.
 Requested convergence on             energy=1.00D-06.
 No special actions if energy rises.
 SCF Done:  E(UB3LYP) =  -153.828695559     A.U. after   11 cycles
            NFock= 11  Conv=0.18D-08     -V/T= 2.0084
 <Sx>= 0.0000 <Sy>= 0.0000 <Sz>= 0.0000 <S**2>=-0.0000 S=-0.0000
 <L.S>= 0.000000000000E+00
 Annihilation of the first spin contaminant:
 S**2 before annihilation    -0.0000,   after    -0.0000

 **********************************************************************

            Population analysis using the SCF density.

 **********************************************************************

 Orbital symmetries:
 Alpha Orbitals:
       Occupied  (A) (A) (A) (A) (A) (A) (A) (A) (A) (A) (A) (A)
       Virtual   (A) (A) (A) (A) (A) (A) (A) (A) (A) (A) (A) (A)
                 (A) (A) (A) (A) (A) (A) (A) (A) (A) (A) (A) (A)
                 (A) (A) (A) (A) (A) (A) (A) (A) (A) (A) (A) (A)
                 (A) (A) (A) (A) (A) (A) (A) (A) (A) (A) (A) (A)
                 (A) (A) (A) (A) (A)
 Beta  Orbitals:
       Occupied  (A) (A) (A) (A) (A) (A) (A) (A) (A) (A) (A) (A)
       Virtual   (A) (A) (A) (A) (A) (A) (A) (A) (A) (A) (A) (A)
                 (A) (A) (A) (A) (A) (A) (A) (A) (A) (A) (A) (A)
                 (A) (A) (A) (A) (A) (A) (A) (A) (A) (A) (A) (A)
                 (A) (A) (A) (A) (A) (A) (A) (A) (A) (A) (A) (A)
                 (A) (A) (A) (A) (A)
 The electronic state is 1-A.
 Alpha  occ. eigenvalues --  -19.16288 -10.28703 -10.19974  -1.08090  -0.74917
 Alpha  occ. eigenvalues --   -0.59703  -0.49039  -0.45799  -0.43967  -0.41158
 Alpha  occ. eigenvalues --   -0.37373  -0.26513
 Alpha virt. eigenvalues --   -0.03717   0.01249   0.02494   0.04724   0.04943
 Alpha virt. eigenvalues --    0.07215   0.07799   0.09359   0.14246   0.16872
 Alpha virt. eigenvalues --    0.17460   0.20418   0.22533   0.25136   0.25228
 Alpha virt. eigenvalues --    0.28342   0.30290   0.33553   0.39994   0.63325
 Alpha virt. eigenvalues --    0.65104   0.66588   0.68118   0.75627   0.76482
 Alpha virt. eigenvalues --    0.90919   0.91635   1.00445   1.05291   1.07689
 Alpha virt. eigenvalues --    1.16714   1.20154   1.23118   1.30568   1.37978
 Alpha virt. eigenvalues --    1.52447   1.56449   1.69728   1.79293   1.80620
 Alpha virt. eigenvalues --    1.90887   2.06303   2.18462   2.21579   2.24551
 Alpha virt. eigenvalues --    2.37706   2.59221   2.60063   2.87208   3.06255
 Alpha virt. eigenvalues --    4.11002   4.17813   4.38674
  Beta  occ. eigenvalues --  -19.16288 -10.28703 -10.19974  -1.08090  -0.74917
  Beta  occ. eigenvalues --   -0.59703  -0.49039  -0.45799  -0.43967  -0.41158
  Beta  occ. eigenvalues --   -0.37373  -0.26513
  Beta virt. eigenvalues --   -0.03717   0.01249   0.02494   0.04724   0.04943
  Beta virt. eigenvalues --    0.07215   0.07799   0.09359   0.14246   0.16872
  Beta virt. eigenvalues --    0.17460   0.20418   0.22533   0.25136   0.25228
  Beta virt. eigenvalues --    0.28342   0.30290   0.33553   0.39994   0.63325
  Beta virt. eigenvalues --    0.65104   0.66588   0.68118   0.75627   0.76482
  Beta virt. eigenvalues --    0.90919   0.91635   1.00445   1.05291   1.07689
  Beta virt. eigenvalues --    1.16714   1.20154   1.23118   1.30568   1.37978
  Beta virt. eigenvalues --    1.52447   1.56449   1.69728   1.79293   1.80620
  Beta virt. eigenvalues --    1.90887   2.06303   2.18462   2.21579   2.24551
  Beta virt. eigenvalues --    2.37706   2.59221   2.60063   2.87208   3.06255
  Beta virt. eigenvalues --    4.11002   4.17813   4.38674
          Condensed to atoms (all electrons):
               1          2          3          4          5          6
     1  H    0.511651   0.359905  -0.036872  -0.023487  -0.023268   0.009610
     2  C    0.359905   5.658802   0.173122   0.391922   0.385462  -0.149769
     3  C   -0.036872   0.173122   4.879403  -0.037191  -0.035248   0.447045
     4  H   -0.023487   0.391922  -0.037191   0.458496  -0.020112  -0.007660
     5  H   -0.023268   0.385462  -0.035248  -0.020112   0.474045  -0.014345
     6  O    0.009610  -0.149769   0.447045  -0.007660  -0.014345   8.122007
     7  H    0.005281  -0.111500   0.385580   0.002303   0.002705  -0.065563
               7
     1  H    0.005281
     2  C   -0.111500
     3  C    0.385580
     4  H    0.002303
     5  H    0.002705
     6  O   -0.065563
     7  H    0.619755
          Atomic-Atomic Spin Densities.
               1          2          3          4          5          6
     1  H    0.000000   0.000000  -0.000000  -0.000000   0.000000   0.000000
     2  C    0.000000   0.000000  -0.000000   0.000000   0.000000   0.000000
     3  C   -0.000000  -0.000000   0.000000  -0.000000  -0.000000  -0.000000
     4  H   -0.000000   0.000000  -0.000000   0.000000   0.000000   0.000000
     5  H    0.000000   0.000000  -0.000000   0.000000  -0.000000   0.000000
     6  O    0.000000   0.000000  -0.000000   0.000000   0.000000  -0.000000
     7  H    0.000000  -0.000000   0.000000   0.000000   0.000000   0.000000
               7
     1  H    0.000000
     2  C   -0.000000
     3  C    0.000000
     4  H    0.000000
     5  H    0.000000
     6  O    0.000000
     7  H    0.000000
 Mulliken charges and spin densities:
               1          2
     1  H    0.197180   0.000000
     2  C   -0.707944   0.000000
     3  C    0.224160  -0.000000
     4  H    0.235729  -0.000000
     5  H    0.230762  -0.000000
     6  O   -0.341325  -0.000000
     7  H    0.161438   0.000000
 Sum of Mulliken charges =  -0.00000  -0.00000
 Mulliken charges and spin densities with hydrogens summed into heavy atoms:
               1          2
     2  C   -0.044272   0.000000
     3  C    0.385598  -0.000000
     6  O   -0.341325  -0.000000
 Electronic spatial extent (au):  <R**2>=            160.3693
 Charge=             -0.0000 electrons
 Dipole moment (field-independent basis, Debye):
    X=              2.1075    Y=              1.3775    Z=              0.0068  Tot=              2.5177
 Quadrupole moment (field-independent basis, Debye-Ang):
   XX=            -21.7052   YY=            -18.0037   ZZ=            -17.9207
   XY=             -1.2541   XZ=             -0.0971   YZ=              0.0475
 Traceless Quadrupole moment (field-independent basis, Debye-Ang):
   XX=             -2.4953   YY=              1.2062   ZZ=              1.2891
   XY=             -1.2541   XZ=             -0.0971   YZ=              0.0475
 Octapole moment (field-independent basis, Debye-Ang**2):
  XXX=              0.1686  YYY=              0.8443  ZZZ=              0.1847  XYY=             -0.9228
  XXY=              1.4691  XXZ=             -0.3723  XZZ=             -1.2042  YZZ=             -1.0626
  YYZ=             -0.1811  XYZ=              0.1374
 Hexadecapole moment (field-independent basis, Debye-Ang**3):
 XXXX=           -145.4614 YYYY=            -47.4075 ZZZZ=            -24.3350 XXXY=              2.6991
 XXXZ=             -0.7572 YYYX=             -0.0032 YYYZ=              0.3604 ZZZX=             -0.0087
 ZZZY=             -0.0884 XXYY=            -30.3095 XXZZ=            -27.3909 YYZZ=            -11.5436
 XXYZ=              0.2136 YYXZ=             -0.3837 ZZXY=             -0.5590
 N-N= 7.089950877964D+01 E-N=-5.008180036609D+02  KE= 1.525404510098D+02
                          Isotropic Fermi Contact Couplings
        Atom                 a.u.       MegaHertz       Gauss      10(-4) cm-1
     1  H(1)               0.00000       0.00000       0.00000       0.00000
     2  C(13)             -0.00000      -0.00000      -0.00000      -0.00000
     3  C(13)             -0.00000      -0.00000      -0.00000      -0.00000
     4  H(1)              -0.00000      -0.00000      -0.00000      -0.00000
     5  H(1)              -0.00000      -0.00000      -0.00000      -0.00000
     6  O(17)             -0.00000       0.00000       0.00000       0.00000
     7  H(1)               0.00000       0.00000       0.00000       0.00000
 --------------------------------------------------------
       Center         ----  Spin Dipole Couplings  ----
                      3XX-RR        3YY-RR        3ZZ-RR
 --------------------------------------------------------
     1   Atom        0.000000      0.000000      0.000000
     2   Atom        0.000000      0.000000      0.000000
     3   Atom        0.000000      0.000000      0.000000
     4   Atom        0.000000      0.000000      0.000000
     5   Atom        0.000000      0.000000      0.000000
     6   Atom        0.000000      0.000000      0.000000
     7   Atom        0.000000      0.000000      0.000000
 --------------------------------------------------------
                        XY            XZ            YZ
 --------------------------------------------------------
     1   Atom        0.000000      0.000000      0.000000
     2   Atom        0.000000      0.000000      0.000000
     3   Atom        0.000000      0.000000      0.000000
     4   Atom        0.000000      0.000000      0.000000
     5   Atom        0.000000      0.000000      0.000000
     6   Atom        0.000000      0.000000      0.000000
     7   Atom        0.000000      0.000000      0.000000
 --------------------------------------------------------


 ---------------------------------------------------------------------------------
              Anisotropic Spin Dipole Couplings in Principal Axis System
 ---------------------------------------------------------------------------------

       Atom             a.u.   MegaHertz   Gauss  10(-4) cm-1        Axes

              Baa     0.0000     0.000     0.000     0.000  1.0000  0.0000  0.0000
     1 H(1)   Bbb     0.0000     0.000     0.000     0.000 -0.0000  1.0000  0.0000
              Bcc     0.0000     0.000     0.000     0.000  0.0000  0.0000  1.0000
 
              Baa     0.0000     0.000     0.000     0.000  1.0000  0.0000  0.0000
     2 C(13)  Bbb     0.0000     0.000     0.000     0.000 -0.0000  1.0000  0.0000
              Bcc     0.0000     0.000     0.000     0.000  0.0000  0.0000  1.0000
 
              Baa     0.0000     0.000     0.000     0.000  1.0000  0.0000  0.0000
     3 C(13)  Bbb     0.0000     0.000     0.000     0.000 -0.0000  1.0000  0.0000
              Bcc     0.0000     0.000     0.000     0.000  0.0000  0.0000  1.0000
 
              Baa     0.0000     0.000     0.000     0.000  1.0000  0.0000  0.0000
     4 H(1)   Bbb     0.0000     0.000     0.000     0.000 -0.0000  1.0000  0.0000
              Bcc     0.0000     0.000     0.000     0.000  0.0000  0.0000  1.0000
 
              Baa     0.0000     0.000     0.000     0.000  1.0000  0.0000  0.0000
     5 H(1)   Bbb     0.0000     0.000     0.000     0.000 -0.0000  1.0000  0.0000
              Bcc     0.0000     0.000     0.000     0.000  0.0000  0.0000  1.0000
 
              Baa     0.0000    -0.000    -0.000    -0.000  1.0000  0.0000  0.0000
     6 O(17)  Bbb     0.0000    -0.000    -0.000    -0.000 -0.0000  1.0000  0.0000
              Bcc     0.0000    -0.000    -0.000    -0.000  0.0000  0.0000  1.0000
 
              Baa     0.0000     0.000     0.000     0.000  1.0000  0.0000  0.0000
     7 H(1)   Bbb     0.0000     0.000     0.000     0.000 -0.0000  1.0000  0.0000
              Bcc     0.0000     0.000     0.000     0.000  0.0000  0.0000  1.0000
 

 ---------------------------------------------------------------------------------

 1\1\GINC-NODE31\SP\UB3LYP\6-31+G(d)\C2H4O1\YANZ\12-Oct-2023\0\\# ub3ly
 p/6-31+g(d)\\tmpdir/M3_conf_0_19.gjf\\0,1\H,0,0.,0.,0.\C,0,1.0921,0.,0
 .\C,0,1.71911,0.,1.39321\H,0,1.52218,-0.84651,-0.55141\H,0,1.53432,0.9
 3361,-0.39726\O,0,2.89736,-0.01797,1.39882\H,0,1.10421,0.08136,2.2838\
 \Version=ES64L-G16RevA.03\State=1-A\HF=-153.8286956\S2=0.\S2-1=0.\S2A=
 0.\RMSD=1.815e-09\Dipole=-0.9771824,0.0303289,-0.1593063\Quadrupole=-1
 .5291762,0.960022,0.5691542,0.0754727,-1.2842014,0.1061331\PG=C01 [X(C
 2H4O1)]\\@


 The cat could very well be man's best friend
 but would never stoop to admitting it.
                               -- Doug Larson
 Job cpu time:       0 days  0 hours  0 minutes 24.4 seconds.
 Elapsed time:       0 days  0 hours  0 minutes  6.4 seconds.
 File lengths (MBytes):  RWF=      6 Int=      0 D2E=      0 Chk=      1 Scr=      1
 Normal termination of Gaussian 16 at Thu Oct 12 15:29:21 2023.
