 Entering Gaussian System, Link 0=g16
 Initial command:
 /share/apps/gaussian/g16/l1.exe "/tmp/58287.mgr/Gau-22159.inp" -scrdir="/tmp/58287.mgr/"
 Entering Link 1 = /share/apps/gaussian/g16/l1.exe PID=     22160.
  
 Copyright (c) 1988,1990,1992,1993,1995,1998,2003,2009,2016,
            Gaussian, Inc.  All Rights Reserved.
  
 This is part of the Gaussian(R) 16 program.  It is based on
 the Gaussian(R) 09 system (copyright 2009, Gaussian, Inc.),
 the Gaussian(R) 03 system (copyright 2003, Gaussian, Inc.),
 the Gaussian(R) 98 system (copyright 1998, Gaussian, Inc.),
 the Gaussian(R) 94 system (copyright 1995, Gaussian, Inc.),
 the Gaussian 92(TM) system (copyright 1992, Gaussian, Inc.),
 the Gaussian 90(TM) system (copyright 1990, Gaussian, Inc.),
 the Gaussian 88(TM) system (copyright 1988, Gaussian, Inc.),
 the Gaussian 86(TM) system (copyright 1986, Carnegie Mellon
 University), and the Gaussian 82(TM) system (copyright 1983,
 Carnegie Mellon University). Gaussian is a federally registered
 trademark of Gaussian, Inc.
  
 This software contains proprietary and confidential information,
 including trade secrets, belonging to Gaussian, Inc.
  
 This software is provided under written license and may be
 used, copied, transmitted, or stored only in accord with that
 written license.
  
 The following legend is applicable only to US Government
 contracts under FAR:
  
                    RESTRICTED RIGHTS LEGEND
  
 Use, reproduction and disclosure by the US Government is
 subject to restrictions as set forth in subparagraphs (a)
 and (c) of the Commercial Computer Software - Restricted
 Rights clause in FAR 52.227-19.
  
 Gaussian, Inc.
 340 Quinnipiac St., Bldg. 40, Wallingford CT 06492
  
  
 ---------------------------------------------------------------
 Warning -- This program may not be used in any manner that
 competes with the business of Gaussian, Inc. or will provide
 assistance to any competitor of Gaussian, Inc.  The licensee
 of this program is prohibited from giving any competitor of
 Gaussian, Inc. access to this program.  By using this program,
 the user acknowledges that Gaussian, Inc. is engaged in the
 business of creating and licensing software in the field of
 computational chemistry and represents and warrants to the
 licensee that it is not a competitor of Gaussian, Inc. and that
 it will not use this program in any manner prohibited above.
 ---------------------------------------------------------------
  

 Cite this work as:
 Gaussian 16, Revision A.03,
 M. J. Frisch, G. W. Trucks, H. B. Schlegel, G. E. Scuseria, 
 M. A. Robb, J. R. Cheeseman, G. Scalmani, V. Barone, 
 G. A. Petersson, H. Nakatsuji, X. Li, M. Caricato, A. V. Marenich, 
 J. Bloino, B. G. Janesko, R. Gomperts, B. Mennucci, H. P. Hratchian, 
 J. V. Ortiz, A. F. Izmaylov, J. L. Sonnenberg, D. Williams-Young, 
 F. Ding, F. Lipparini, F. Egidi, J. Goings, B. Peng, A. Petrone, 
 T. Henderson, D. Ranasinghe, V. G. Zakrzewski, J. Gao, N. Rega, 
 G. Zheng, W. Liang, M. Hada, M. Ehara, K. Toyota, R. Fukuda, 
 J. Hasegawa, M. Ishida, T. Nakajima, Y. Honda, O. Kitao, H. Nakai, 
 T. Vreven, K. Throssell, J. A. Montgomery, Jr., J. E. Peralta, 
 F. Ogliaro, M. J. Bearpark, J. J. Heyd, E. N. Brothers, K. N. Kudin, 
 V. N. Staroverov, T. A. Keith, R. Kobayashi, J. Normand, 
 K. Raghavachari, A. P. Rendell, J. C. Burant, S. S. Iyengar, 
 J. Tomasi, M. Cossi, J. M. Millam, M. Klene, C. Adamo, R. Cammi, 
 J. W. Ochterski, R. L. Martin, K. Morokuma, O. Farkas, 
 J. B. Foresman, and D. J. Fox, Gaussian, Inc., Wallingford CT, 2016.
 
 ******************************************
 Gaussian 16:  ES64L-G16RevA.03 25-Dec-2016
                12-Oct-2023 
 ******************************************
 %nprocshared=4
 Will use up to    4 processors via shared memory.
 %mem=4GB
 ------------------
 # ub3lyp/6-31+g(d)
 ------------------
 1/38=1,172=1/1;
 2/12=2,17=6,18=5,40=1/2;
 3/5=1,6=6,7=11,11=2,25=1,30=1,74=-5,116=2/1,2,3;
 4//1;
 5/5=2,38=5/2;
 6/7=2,8=2,9=2,10=2,28=1/1;
 99/5=1,9=1/99;
 ----------------------
 tmpdir/M3_conf_0_1.gjf
 ----------------------
 Symbolic Z-matrix:
 Charge =  0 Multiplicity = 1
 C                     0.        0.        0. 
 C                     1.5035    0.        0. 
 C                    -0.55888   0.       -1.28656 
 C                    -0.82152   0.01422   1.11582 
 C                    -1.93633   0.03156  -1.45273 
 C                    -2.20836   0.02843   0.94909 
 H                    -0.38879   0.01577   2.11308 
 C                    -2.76188   0.03797  -0.32744 
 H                    -2.36675   0.04329  -2.45092 
 H                    -2.85607   0.03384   1.82077 
 H                    -3.84096   0.05     -0.45011 
 H                     1.85048   0.87612  -0.58055 
 H                     1.93127  -0.05592   1.00328 
 H                     1.84598  -0.81777  -0.66104 
 H                     0.20176   0.02501  -2.08604 
 
                          Input orientation:                          
 ---------------------------------------------------------------------
 Center     Atomic      Atomic             Coordinates (Angstroms)
 Number     Number       Type             X           Y           Z
 ---------------------------------------------------------------------
      1          6           0        0.000000    0.000000    0.000000
      2          6           0        1.503500    0.000000    0.000000
      3          6           0       -0.558880    0.000000   -1.286560
      4          6           0       -0.821520    0.014220    1.115820
      5          6           0       -1.936330    0.031560   -1.452730
      6          6           0       -2.208360    0.028430    0.949090
      7          1           0       -0.388790    0.015770    2.113080
      8          6           0       -2.761880    0.037970   -0.327440
      9          1           0       -2.366750    0.043290   -2.450920
     10          1           0       -2.856070    0.033840    1.820770
     11          1           0       -3.840960    0.050000   -0.450110
     12          1           0        1.850480    0.876120   -0.580550
     13          1           0        1.931270   -0.055920    1.003280
     14          1           0        1.845980   -0.817770   -0.661040
     15          1           0        0.201760    0.025010   -2.086040
 ---------------------------------------------------------------------
                    Distance matrix (angstroms):
                    1          2          3          4          5
     1  C    0.000000
     2  C    1.503500   0.000000
     3  C    1.402706   2.430771   0.000000
     4  C    1.385695   2.578948   2.416736   0.000000
     5  C    2.420908   3.734147   1.387796   2.800098   0.000000
     6  C    2.403837   3.831382   2.778439   1.396899   2.417178
     7  H    2.148607   2.836568   3.403929   1.087099   3.887175
     8  C    2.781482   4.278098   2.403032   2.418380   1.395654
     9  H    3.407402   4.581235   2.150814   3.887186   1.087098
    10  H    3.387253   4.724637   3.864418   2.153307   3.400254
    11  H    3.867567   5.363614   3.387359   3.401534   2.152487
    12  H    2.128121   1.106806   2.659145   3.280263   3.976671
    13  H    2.177040   1.092101   3.383392   2.755982   4.582354
    14  H    2.124468   1.105900   2.615984   3.311343   3.956514
    15  H    2.095924   2.459007   1.103797   3.361417   2.229922
                    6          7          8          9         10
     6  C    0.000000
     7  H    2.160062   0.000000
     8  C    1.391404   3.404143   0.000000
     9  H    3.403730   4.974252   2.159936   0.000000
    10  H    1.085994   2.484601   2.150278   4.299635   0.000000
    11  H    2.150258   4.299836   1.086097   2.485273   2.475311
    12  H    4.419565   3.606962   4.694723   4.687955   5.350457
    13  H    4.140844   2.572834   4.879066   5.514918   4.857465
    14  H    4.443675   3.658514   4.698505   4.657487   5.384598
    15  H    3.875655   4.240453   3.446158   2.594362   4.961206
                   11         12         13         14         15
    11  H    0.000000
    12  H    5.752563   0.000000
    13  H    5.953335   1.839495   0.000000
    14  H    5.756631   1.695807   1.832389   0.000000
    15  H    4.361247   2.389386   3.541420   2.333316   0.000000
 Stoichiometry    C7H8
 Framework group  C1[X(C7H8)]
 Deg. of freedom    39
 Full point group                 C1      NOp   1
 Largest Abelian subgroup         C1      NOp   1
 Largest concise Abelian subgroup C1      NOp   1
                         Standard orientation:                         
 ---------------------------------------------------------------------
 Center     Atomic      Atomic             Coordinates (Angstroms)
 Number     Number       Type             X           Y           Z
 ---------------------------------------------------------------------
      1          6           0       -0.892287    0.105886   -0.008431
      2          6           0       -2.394187    0.038003    0.005632
      3          6           0       -0.275923   -1.154129   -0.014933
      4          6           0       -0.121877    1.257651   -0.000791
      5          6           0        1.107860   -1.257956    0.003577
      6          6           0        1.271148    1.153698    0.000281
      7          1           0       -0.599151    2.234355    0.005795
      8          6           0        1.881794   -0.096544    0.003379
      9          1           0        1.582993   -2.235702    0.010291
     10          1           0        1.878870    2.053729    0.000496
     11          1           0        2.965377   -0.170376    0.005194
     12          1           0       -2.706365   -0.558118    0.884384
     13          1           0       -2.867318    1.020978   -0.045290
     14          1           0       -2.714140   -0.637361   -0.809553
     15          1           0       -0.999429   -1.987150    0.016399
 ---------------------------------------------------------------------
 Rotational constants (GHZ):           5.5087530           2.5682133           1.7694556
 Standard basis: 6-31+G(d) (6D, 7F)
 There are   149 symmetry adapted cartesian basis functions of A   symmetry.
 There are   149 symmetry adapted basis functions of A   symmetry.
   149 basis functions,   256 primitive gaussians,   149 cartesian basis functions
    25 alpha electrons       25 beta electrons
       nuclear repulsion energy       269.8764102833 Hartrees.
 NAtoms=   15 NActive=   15 NUniq=   15 SFac= 1.00D+00 NAtFMM=   60 NAOKFM=F Big=F
 Integral buffers will be    131072 words long.
 Raffenetti 2 integral format.
 Two-electron integral symmetry is turned on.
 One-electron integrals computed using PRISM.
 NBasis=   149 RedAO= T EigKep=  4.99D-06  NBF=   149
 NBsUse=   149 1.00D-06 EigRej= -1.00D+00 NBFU=   149
 ExpMin= 4.38D-02 ExpMax= 3.05D+03 ExpMxC= 4.57D+02 IAcc=3 IRadAn=         5 AccDes= 0.00D+00
 Harris functional with IExCor=  402 and IRadAn=       5 diagonalized for initial guess.
 HarFok:  IExCor=  402 AccDes= 0.00D+00 IRadAn=         5 IDoV= 1 UseB2=F ITyADJ=14
 ICtDFT=  3500011 ScaDFX=  1.000000  1.000000  1.000000  1.000000
 FoFCou: FMM=F IPFlag=           0 FMFlag=      100000 FMFlg1=           0
         NFxFlg=           0 DoJE=T BraDBF=F KetDBF=T FulRan=T
         wScrn=  0.000000 ICntrl=       500 IOpCl=  0 I1Cent=   200000004 NGrid=           0
         NMat0=    1 NMatS0=      1 NMatT0=    0 NMatD0=    1 NMtDS0=    0 NMtDT0=    0
 Petite list used in FoFCou.
 Initial guess <Sx>= 0.0000 <Sy>= 0.0000 <Sz>= 0.0000 <S**2>= 0.0000 S= 0.0000
 Keep R1 and R2 ints in memory in canonical form, NReq=128793723.
 Requested convergence on RMS density matrix=1.00D-08 within 128 cycles.
 Requested convergence on MAX density matrix=1.00D-06.
 Requested convergence on             energy=1.00D-06.
 No special actions if energy rises.
 SCF Done:  E(UB3LYP) =  -271.569477307     A.U. after   12 cycles
            NFock= 12  Conv=0.66D-08     -V/T= 2.0099
 <Sx>= 0.0000 <Sy>= 0.0000 <Sz>= 0.0000 <S**2>=-0.0000 S=-0.0000
 <L.S>= 0.000000000000E+00
 Annihilation of the first spin contaminant:
 S**2 before annihilation    -0.0000,   after    -0.0000

 **********************************************************************

            Population analysis using the SCF density.

 **********************************************************************

 Orbital symmetries:
 Alpha Orbitals:
       Occupied  (A) (A) (A) (A) (A) (A) (A) (A) (A) (A) (A) (A)
                 (A) (A) (A) (A) (A) (A) (A) (A) (A) (A) (A) (A)
                 (A)
       Virtual   (A) (A) (A) (A) (A) (A) (A) (A) (A) (A) (A) (A)
                 (A) (A) (A) (A) (A) (A) (A) (A) (A) (A) (A) (A)
                 (A) (A) (A) (A) (A) (A) (A) (A) (A) (A) (A) (A)
                 (A) (A) (A) (A) (A) (A) (A) (A) (A) (A) (A) (A)
                 (A) (A) (A) (A) (A) (A) (A) (A) (A) (A) (A) (A)
                 (A) (A) (A) (A) (A) (A) (A) (A) (A) (A) (A) (A)
                 (A) (A) (A) (A) (A) (A) (A) (A) (A) (A) (A) (A)
                 (A) (A) (A) (A) (A) (A) (A) (A) (A) (A) (A) (A)
                 (A) (A) (A) (A) (A) (A) (A) (A) (A) (A) (A) (A)
                 (A) (A) (A) (A) (A) (A) (A) (A) (A) (A) (A) (A)
                 (A) (A) (A) (A)
 Beta  Orbitals:
       Occupied  (A) (A) (A) (A) (A) (A) (A) (A) (A) (A) (A) (A)
                 (A) (A) (A) (A) (A) (A) (A) (A) (A) (A) (A) (A)
                 (A)
       Virtual   (A) (A) (A) (A) (A) (A) (A) (A) (A) (A) (A) (A)
                 (A) (A) (A) (A) (A) (A) (A) (A) (A) (A) (A) (A)
                 (A) (A) (A) (A) (A) (A) (A) (A) (A) (A) (A) (A)
                 (A) (A) (A) (A) (A) (A) (A) (A) (A) (A) (A) (A)
                 (A) (A) (A) (A) (A) (A) (A) (A) (A) (A) (A) (A)
                 (A) (A) (A) (A) (A) (A) (A) (A) (A) (A) (A) (A)
                 (A) (A) (A) (A) (A) (A) (A) (A) (A) (A) (A) (A)
                 (A) (A) (A) (A) (A) (A) (A) (A) (A) (A) (A) (A)
                 (A) (A) (A) (A) (A) (A) (A) (A) (A) (A) (A) (A)
                 (A) (A) (A) (A) (A) (A) (A) (A) (A) (A) (A) (A)
                 (A) (A) (A) (A)
 The electronic state is 1-A.
 Alpha  occ. eigenvalues --  -10.19877 -10.19520 -10.19411 -10.19148 -10.19142
 Alpha  occ. eigenvalues --  -10.19062 -10.18929  -0.86119  -0.77726  -0.74831
 Alpha  occ. eigenvalues --   -0.68645  -0.61073  -0.58356  -0.51364  -0.46706
 Alpha  occ. eigenvalues --   -0.45583  -0.42494  -0.41666  -0.40770  -0.39894
 Alpha  occ. eigenvalues --   -0.35467  -0.34753  -0.33848  -0.25578  -0.24256
 Alpha virt. eigenvalues --   -0.01532  -0.00656   0.00558   0.01917   0.02489
 Alpha virt. eigenvalues --    0.04251   0.04667   0.05171   0.06551   0.06912
 Alpha virt. eigenvalues --    0.07770   0.08227   0.08926   0.10347   0.12187
 Alpha virt. eigenvalues --    0.12737   0.13011   0.13440   0.14102   0.15540
 Alpha virt. eigenvalues --    0.16152   0.16760   0.17344   0.18054   0.19498
 Alpha virt. eigenvalues --    0.19702   0.21405   0.21697   0.22196   0.22755
 Alpha virt. eigenvalues --    0.23381   0.24401   0.24987   0.25672   0.26757
 Alpha virt. eigenvalues --    0.28056   0.28351   0.30158   0.31779   0.33926
 Alpha virt. eigenvalues --    0.34837   0.35685   0.37112   0.39774   0.56015
 Alpha virt. eigenvalues --    0.60220   0.65133   0.66886   0.67409   0.69013
 Alpha virt. eigenvalues --    0.71146   0.71890   0.72264   0.73839   0.74175
 Alpha virt. eigenvalues --    0.74732   0.77411   0.77659   0.78276   0.81821
 Alpha virt. eigenvalues --    0.82195   0.85735   0.89603   0.92331   0.92890
 Alpha virt. eigenvalues --    0.94008   0.96505   1.00912   1.02201   1.04404
 Alpha virt. eigenvalues --    1.08840   1.09202   1.13554   1.14840   1.17147
 Alpha virt. eigenvalues --    1.19347   1.22197   1.25550   1.31517   1.36485
 Alpha virt. eigenvalues --    1.42030   1.43538   1.45804   1.48259   1.49462
 Alpha virt. eigenvalues --    1.50011   1.51451   1.83522   1.84454   1.86665
 Alpha virt. eigenvalues --    1.91094   1.92030   1.93025   1.96179   1.99664
 Alpha virt. eigenvalues --    2.10991   2.12287   2.14547   2.15530   2.18535
 Alpha virt. eigenvalues --    2.20107   2.25204   2.30921   2.32798   2.34667
 Alpha virt. eigenvalues --    2.37386   2.40942   2.59431   2.61752   2.66222
 Alpha virt. eigenvalues --    2.74214   2.75076   2.75515   2.78895   2.91286
 Alpha virt. eigenvalues --    3.07415   3.41529   4.23088   4.24626   4.26143
 Alpha virt. eigenvalues --    4.31678   4.38463   4.45102   4.71712
  Beta  occ. eigenvalues --  -10.19877 -10.19520 -10.19411 -10.19148 -10.19142
  Beta  occ. eigenvalues --  -10.19062 -10.18929  -0.86119  -0.77726  -0.74831
  Beta  occ. eigenvalues --   -0.68645  -0.61073  -0.58356  -0.51364  -0.46706
  Beta  occ. eigenvalues --   -0.45583  -0.42494  -0.41666  -0.40770  -0.39894
  Beta  occ. eigenvalues --   -0.35467  -0.34753  -0.33848  -0.25578  -0.24256
  Beta virt. eigenvalues --   -0.01532  -0.00656   0.00558   0.01917   0.02489
  Beta virt. eigenvalues --    0.04251   0.04667   0.05171   0.06551   0.06912
  Beta virt. eigenvalues --    0.07770   0.08227   0.08926   0.10347   0.12187
  Beta virt. eigenvalues --    0.12737   0.13011   0.13440   0.14102   0.15540
  Beta virt. eigenvalues --    0.16152   0.16760   0.17344   0.18054   0.19498
  Beta virt. eigenvalues --    0.19702   0.21405   0.21697   0.22196   0.22755
  Beta virt. eigenvalues --    0.23381   0.24401   0.24987   0.25672   0.26757
  Beta virt. eigenvalues --    0.28056   0.28351   0.30158   0.31779   0.33926
  Beta virt. eigenvalues --    0.34837   0.35685   0.37112   0.39774   0.56015
  Beta virt. eigenvalues --    0.60220   0.65133   0.66886   0.67409   0.69013
  Beta virt. eigenvalues --    0.71146   0.71890   0.72264   0.73839   0.74175
  Beta virt. eigenvalues --    0.74732   0.77411   0.77659   0.78276   0.81821
  Beta virt. eigenvalues --    0.82195   0.85735   0.89603   0.92331   0.92890
  Beta virt. eigenvalues --    0.94008   0.96505   1.00912   1.02201   1.04404
  Beta virt. eigenvalues --    1.08840   1.09202   1.13554   1.14840   1.17147
  Beta virt. eigenvalues --    1.19347   1.22197   1.25550   1.31517   1.36485
  Beta virt. eigenvalues --    1.42030   1.43538   1.45804   1.48259   1.49462
  Beta virt. eigenvalues --    1.50011   1.51451   1.83522   1.84454   1.86665
  Beta virt. eigenvalues --    1.91094   1.92030   1.93025   1.96179   1.99664
  Beta virt. eigenvalues --    2.10991   2.12287   2.14547   2.15530   2.18535
  Beta virt. eigenvalues --    2.20107   2.25204   2.30921   2.32798   2.34667
  Beta virt. eigenvalues --    2.37386   2.40942   2.59431   2.61752   2.66222
  Beta virt. eigenvalues --    2.74214   2.75076   2.75515   2.78895   2.91286
  Beta virt. eigenvalues --    3.07415   3.41529   4.23088   4.24626   4.26143
  Beta virt. eigenvalues --    4.31678   4.38463   4.45102   4.71712
          Condensed to atoms (all electrons):
               1          2          3          4          5          6
     1  C    7.878525  -0.610342  -0.541044  -0.372964  -0.006878  -0.192966
     2  C   -0.610342   6.128442  -0.295192   0.580447  -0.115456  -0.026586
     3  C   -0.541044  -0.295192   9.173701  -2.806720  -0.076728  -0.092057
     4  C   -0.372964   0.580447  -2.806720   8.380616   0.212937   0.518555
     5  C   -0.006878  -0.115456  -0.076728   0.212937   5.644706  -0.179850
     6  C   -0.192966  -0.026586  -0.092057   0.518555  -0.179850   5.313267
     7  H    0.028675  -0.008887   0.030783   0.220536  -0.012343   0.004890
     8  C   -0.374394   0.039626   0.278847  -0.116877   0.365350   0.548442
     9  H    0.019671  -0.000268  -0.014039  -0.007633   0.288632   0.010132
    10  H    0.014752  -0.000110  -0.003176  -0.013455   0.003964   0.281708
    11  H    0.001953   0.000546   0.005142   0.006211  -0.005294   0.011626
    12  H   -0.103733   0.418804   0.007537   0.004570  -0.005081  -0.003673
    13  H   -0.133144   0.456343  -0.013538   0.035979  -0.008105   0.002213
    14  H   -0.121904   0.423493   0.024432  -0.002333   0.000398  -0.005335
    15  H   -0.010164   0.004754   0.221232   0.060807  -0.007189  -0.012989
               7          8          9         10         11         12
     1  C    0.028675  -0.374394   0.019671   0.014752   0.001953  -0.103733
     2  C   -0.008887   0.039626  -0.000268  -0.000110   0.000546   0.418804
     3  C    0.030783   0.278847  -0.014039  -0.003176   0.005142   0.007537
     4  C    0.220536  -0.116877  -0.007633  -0.013455   0.006211   0.004570
     5  C   -0.012343   0.365350   0.288632   0.003964  -0.005294  -0.005081
     6  C    0.004890   0.548442   0.010132   0.281708   0.011626  -0.003673
     7  H    0.553537   0.011799   0.000019  -0.004752  -0.000158   0.000048
     8  C    0.011799   5.127321  -0.006788   0.007350   0.272024   0.003993
     9  H    0.000019  -0.006788   0.541746  -0.000164  -0.005060  -0.000004
    10  H   -0.004752   0.007350  -0.000164   0.542519  -0.005172   0.000002
    11  H   -0.000158   0.272024  -0.005060  -0.005172   0.543436   0.000000
    12  H    0.000048   0.003993  -0.000004   0.000002   0.000000   0.514609
    13  H    0.003561   0.002126   0.000003  -0.000000  -0.000000  -0.019660
    14  H    0.000034   0.004308  -0.000004   0.000003   0.000000  -0.044163
    15  H   -0.000188   0.013014  -0.003886   0.000018  -0.000139   0.001445
              13         14         15
     1  C   -0.133144  -0.121904  -0.010164
     2  C    0.456343   0.423493   0.004754
     3  C   -0.013538   0.024432   0.221232
     4  C    0.035979  -0.002333   0.060807
     5  C   -0.008105   0.000398  -0.007189
     6  C    0.002213  -0.005335  -0.012989
     7  H    0.003561   0.000034  -0.000188
     8  C    0.002126   0.004308   0.013014
     9  H    0.000003  -0.000004  -0.003886
    10  H   -0.000000   0.000003   0.000018
    11  H   -0.000000   0.000000  -0.000139
    12  H   -0.019660  -0.044163   0.001445
    13  H    0.492751  -0.020277   0.000403
    14  H   -0.020277   0.517017   0.001527
    15  H    0.000403   0.001527   0.558208
          Atomic-Atomic Spin Densities.
               1          2          3          4          5          6
     1  C   -0.000000   0.000000   0.000000  -0.000000  -0.000000   0.000000
     2  C    0.000000  -0.000000   0.000000  -0.000000  -0.000000   0.000000
     3  C    0.000000   0.000000  -0.000000   0.000000   0.000000   0.000000
     4  C   -0.000000  -0.000000   0.000000  -0.000000  -0.000000  -0.000000
     5  C   -0.000000  -0.000000   0.000000  -0.000000  -0.000000  -0.000000
     6  C    0.000000   0.000000   0.000000  -0.000000  -0.000000  -0.000000
     7  H   -0.000000  -0.000000  -0.000000  -0.000000   0.000000   0.000000
     8  C    0.000000  -0.000000  -0.000000   0.000000   0.000000   0.000000
     9  H    0.000000  -0.000000  -0.000000   0.000000   0.000000   0.000000
    10  H    0.000000  -0.000000  -0.000000  -0.000000   0.000000   0.000000
    11  H   -0.000000   0.000000   0.000000   0.000000  -0.000000  -0.000000
    12  H    0.000000  -0.000000  -0.000000  -0.000000   0.000000   0.000000
    13  H    0.000000  -0.000000   0.000000  -0.000000  -0.000000  -0.000000
    14  H    0.000000  -0.000000  -0.000000  -0.000000   0.000000   0.000000
    15  H   -0.000000  -0.000000   0.000000  -0.000000  -0.000000  -0.000000
               7          8          9         10         11         12
     1  C   -0.000000   0.000000   0.000000   0.000000  -0.000000   0.000000
     2  C   -0.000000  -0.000000  -0.000000  -0.000000   0.000000  -0.000000
     3  C   -0.000000  -0.000000  -0.000000  -0.000000   0.000000  -0.000000
     4  C   -0.000000   0.000000   0.000000  -0.000000   0.000000  -0.000000
     5  C    0.000000   0.000000   0.000000   0.000000  -0.000000   0.000000
     6  C    0.000000   0.000000   0.000000   0.000000  -0.000000   0.000000
     7  H    0.000000  -0.000000  -0.000000   0.000000  -0.000000   0.000000
     8  C   -0.000000  -0.000000  -0.000000  -0.000000   0.000000  -0.000000
     9  H   -0.000000  -0.000000  -0.000000  -0.000000   0.000000  -0.000000
    10  H    0.000000  -0.000000  -0.000000  -0.000000   0.000000   0.000000
    11  H   -0.000000   0.000000   0.000000   0.000000  -0.000000  -0.000000
    12  H    0.000000  -0.000000  -0.000000   0.000000  -0.000000   0.000000
    13  H   -0.000000  -0.000000   0.000000  -0.000000   0.000000   0.000000
    14  H    0.000000  -0.000000  -0.000000   0.000000  -0.000000   0.000000
    15  H   -0.000000   0.000000   0.000000   0.000000  -0.000000   0.000000
              13         14         15
     1  C    0.000000   0.000000  -0.000000
     2  C   -0.000000  -0.000000  -0.000000
     3  C    0.000000  -0.000000   0.000000
     4  C   -0.000000  -0.000000  -0.000000
     5  C   -0.000000   0.000000  -0.000000
     6  C   -0.000000   0.000000  -0.000000
     7  H   -0.000000   0.000000  -0.000000
     8  C   -0.000000  -0.000000   0.000000
     9  H    0.000000  -0.000000   0.000000
    10  H   -0.000000   0.000000   0.000000
    11  H    0.000000  -0.000000  -0.000000
    12  H    0.000000   0.000000   0.000000
    13  H   -0.000000   0.000000  -0.000000
    14  H    0.000000   0.000000   0.000000
    15  H   -0.000000   0.000000  -0.000000
 Mulliken charges and spin densities:
               1          2
     1  C    0.523959  -0.000000
     2  C   -0.995614   0.000000
     3  C    0.100819   0.000000
     4  C   -0.700678   0.000000
     5  C   -0.099062  -0.000000
     6  C   -0.177377  -0.000000
     7  H    0.172448  -0.000000
     8  C   -0.176142   0.000000
     9  H    0.177643   0.000000
    10  H    0.176514   0.000000
    11  H    0.174886  -0.000000
    12  H    0.225308   0.000000
    13  H    0.201345  -0.000000
    14  H    0.222804   0.000000
    15  H    0.173146  -0.000000
 Sum of Mulliken charges =  -0.00000  -0.00000
 Mulliken charges and spin densities with hydrogens summed into heavy atoms:
               1          2
     1  C    0.523959  -0.000000
     2  C   -0.346157   0.000000
     3  C    0.273965   0.000000
     4  C   -0.528230   0.000000
     5  C    0.078581  -0.000000
     6  C   -0.000863  -0.000000
     8  C   -0.001256   0.000000
 Electronic spatial extent (au):  <R**2>=            712.9310
 Charge=             -0.0000 electrons
 Dipole moment (field-independent basis, Debye):
    X=             -0.4092    Y=             -0.0737    Z=              0.0410  Tot=              0.4178
 Quadrupole moment (field-independent basis, Debye-Ang):
   XX=            -39.1141   YY=            -39.1282   ZZ=            -46.8144
   XY=              0.3321   XZ=             -0.0253   YZ=             -0.0896
 Traceless Quadrupole moment (field-independent basis, Debye-Ang):
   XX=              2.5715   YY=              2.5574   ZZ=             -5.1288
   XY=              0.3321   XZ=             -0.0253   YZ=             -0.0896
 Octapole moment (field-independent basis, Debye-Ang**2):
  XXX=              5.4911  YYY=              1.3805  ZZZ=              0.1743  XYY=              0.1370
  XXY=             -0.8620  XXZ=              0.0469  XZZ=             -3.3486  YZZ=             -0.6012
  YYZ=              0.1104  XYZ=              0.1108
 Hexadecapole moment (field-independent basis, Debye-Ang**3):
 XXXX=           -620.2905 YYYY=           -299.5487 ZZZZ=            -65.3118 XXXY=              0.9802
 XXXZ=              0.1592 YYYX=             -1.7895 YYYZ=             -0.3118 ZZZX=             -0.3163
 ZZZY=             -0.1747 XXYY=           -145.9494 XXZZ=           -124.0206 YYZZ=            -70.8426
 XXYZ=             -0.4229 YYXZ=              0.1626 ZZXY=              1.6467
 N-N= 2.698764102833D+02 E-N=-1.167499639316D+03  KE= 2.689094671181D+02
                          Isotropic Fermi Contact Couplings
        Atom                 a.u.       MegaHertz       Gauss      10(-4) cm-1
     1  C(13)              0.00000       0.00000       0.00000       0.00000
     2  C(13)             -0.00000      -0.00000      -0.00000      -0.00000
     3  C(13)              0.00000       0.00000       0.00000       0.00000
     4  C(13)             -0.00000      -0.00000      -0.00000      -0.00000
     5  C(13)              0.00000       0.00000       0.00000       0.00000
     6  C(13)              0.00000       0.00000       0.00000       0.00000
     7  H(1)              -0.00000      -0.00000      -0.00000      -0.00000
     8  C(13)             -0.00000      -0.00000      -0.00000      -0.00000
     9  H(1)               0.00000       0.00000       0.00000       0.00000
    10  H(1)               0.00000       0.00000       0.00000       0.00000
    11  H(1)               0.00000       0.00000       0.00000       0.00000
    12  H(1)               0.00000       0.00000       0.00000       0.00000
    13  H(1)              -0.00000      -0.00000      -0.00000      -0.00000
    14  H(1)               0.00000       0.00000       0.00000       0.00000
    15  H(1)               0.00000       0.00000       0.00000       0.00000
 --------------------------------------------------------
       Center         ----  Spin Dipole Couplings  ----
                      3XX-RR        3YY-RR        3ZZ-RR
 --------------------------------------------------------
     1   Atom        0.000000     -0.000000     -0.000000
     2   Atom       -0.000000      0.000000     -0.000000
     3   Atom       -0.000000     -0.000000      0.000000
     4   Atom        0.000000     -0.000000     -0.000000
     5   Atom       -0.000000      0.000000      0.000000
     6   Atom       -0.000000     -0.000000      0.000000
     7   Atom       -0.000000      0.000000      0.000000
     8   Atom        0.000000     -0.000000      0.000000
     9   Atom       -0.000000      0.000000      0.000000
    10   Atom       -0.000000      0.000000      0.000000
    11   Atom       -0.000000     -0.000000      0.000000
    12   Atom       -0.000000      0.000000     -0.000000
    13   Atom        0.000000     -0.000000     -0.000000
    14   Atom        0.000000     -0.000000     -0.000000
    15   Atom       -0.000000     -0.000000      0.000000
 --------------------------------------------------------
                        XY            XZ            YZ
 --------------------------------------------------------
     1   Atom       -0.000000     -0.000000      0.000000
     2   Atom        0.000000     -0.000000     -0.000000
     3   Atom        0.000000     -0.000000     -0.000000
     4   Atom       -0.000000      0.000000      0.000000
     5   Atom       -0.000000     -0.000000      0.000000
     6   Atom        0.000000      0.000000     -0.000000
     7   Atom        0.000000      0.000000     -0.000000
     8   Atom       -0.000000     -0.000000     -0.000000
     9   Atom        0.000000      0.000000     -0.000000
    10   Atom        0.000000      0.000000      0.000000
    11   Atom       -0.000000      0.000000     -0.000000
    12   Atom        0.000000      0.000000     -0.000000
    13   Atom       -0.000000      0.000000     -0.000000
    14   Atom        0.000000     -0.000000     -0.000000
    15   Atom       -0.000000      0.000000      0.000000
 --------------------------------------------------------


 ---------------------------------------------------------------------------------
              Anisotropic Spin Dipole Couplings in Principal Axis System
 ---------------------------------------------------------------------------------

       Atom             a.u.   MegaHertz   Gauss  10(-4) cm-1        Axes

              Baa    -0.0000    -0.000    -0.000    -0.000  0.3144  0.7957 -0.5176
     1 C(13)  Bbb    -0.0000    -0.000    -0.000    -0.000  0.4557  0.3519  0.8177
              Bcc     0.0000     0.000     0.000     0.000  0.8328 -0.4930 -0.2520
 
              Baa    -0.0000    -0.000    -0.000    -0.000  0.7834 -0.6215 -0.0004
     2 C(13)  Bbb    -0.0000    -0.000    -0.000    -0.000  0.0560  0.0699  0.9960
              Bcc     0.0000     0.000     0.000     0.000  0.6190  0.7803 -0.0896
 
              Baa    -0.0000    -0.000    -0.000    -0.000 -0.6573  0.7536  0.0075
     3 C(13)  Bbb     0.0000     0.000     0.000     0.000  0.1622  0.1317  0.9779
              Bcc     0.0000     0.000     0.000     0.000  0.7359  0.6440 -0.2089
 
              Baa    -0.0000    -0.000    -0.000    -0.000  0.2819  0.9329 -0.2239
     4 C(13)  Bbb    -0.0000    -0.000    -0.000    -0.000  0.0288  0.2251  0.9739
              Bcc     0.0000     0.000     0.000     0.000  0.9590 -0.2810  0.0366
 
              Baa    -0.0000    -0.000    -0.000    -0.000  0.8183  0.5738  0.0350
     5 C(13)  Bbb     0.0000     0.000     0.000     0.000  0.1164 -0.2250  0.9674
              Bcc     0.0000     0.000     0.000     0.000 -0.5629  0.7875  0.2509
 
              Baa    -0.0000    -0.000    -0.000    -0.000 -0.6507  0.7470  0.1361
     6 C(13)  Bbb     0.0000     0.000     0.000     0.000 -0.5329 -0.5769  0.6190
              Bcc     0.0000     0.000     0.000     0.000  0.5409  0.3303  0.7735
 
              Baa    -0.0000    -0.000    -0.000    -0.000  0.8471 -0.5008 -0.1778
     7 H(1)   Bbb     0.0000     0.000     0.000     0.000  0.2927  0.1604  0.9427
              Bcc     0.0000     0.000     0.000     0.000  0.4436  0.8506 -0.2824
 
              Baa    -0.0000    -0.000    -0.000    -0.000  0.6773  0.6768  0.2884
     8 C(13)  Bbb     0.0000     0.000     0.000     0.000 -0.1006 -0.3031  0.9476
              Bcc     0.0000     0.000     0.000     0.000  0.7288 -0.6708 -0.1372
 
              Baa    -0.0000    -0.000    -0.000    -0.000  0.9890 -0.1159 -0.0915
     9 H(1)   Bbb     0.0000     0.000     0.000     0.000  0.1178  0.2460  0.9621
              Bcc     0.0000     0.000     0.000     0.000  0.0890  0.9623 -0.2570
 
              Baa    -0.0000    -0.000    -0.000    -0.000  0.7507 -0.6595  0.0393
    10 H(1)   Bbb     0.0000     0.000     0.000     0.000 -0.1552 -0.1182  0.9808
              Bcc     0.0000     0.000     0.000     0.000  0.6422  0.7423  0.1911
 
              Baa    -0.0000    -0.000    -0.000    -0.000  0.7175  0.6966  0.0011
    11 H(1)   Bbb     0.0000     0.000     0.000     0.000 -0.4331  0.4449  0.7839
              Bcc     0.0000     0.000     0.000     0.000  0.5455 -0.5629  0.6209
 
              Baa    -0.0000    -0.000    -0.000    -0.000  0.6933 -0.5858 -0.4198
    12 H(1)   Bbb    -0.0000    -0.000    -0.000    -0.000  0.5648  0.0800  0.8213
              Bcc     0.0000     0.000     0.000     0.000  0.4476  0.8065 -0.3863
 
              Baa    -0.0000    -0.000    -0.000    -0.000  0.3782  0.8462  0.3754
    13 H(1)   Bbb    -0.0000    -0.000    -0.000    -0.000 -0.3536 -0.2427  0.9034
              Bcc     0.0000     0.000     0.000     0.000  0.8555 -0.4744  0.2074
 
              Baa    -0.0000    -0.000    -0.000    -0.000  0.4411  0.4043  0.8012
    14 H(1)   Bbb    -0.0000    -0.000    -0.000    -0.000 -0.4352  0.8772 -0.2030
              Bcc     0.0000     0.000     0.000     0.000  0.7849  0.2592 -0.5628
 
              Baa    -0.0000    -0.000    -0.000    -0.000  0.9657  0.1197 -0.2304
    15 H(1)   Bbb    -0.0000    -0.000    -0.000    -0.000 -0.1400  0.9874 -0.0741
              Bcc     0.0000     0.000     0.000     0.000  0.2186  0.1039  0.9703
 

 ---------------------------------------------------------------------------------

 1\1\GINC-NODE31\SP\UB3LYP\6-31+G(d)\C7H8\YANZ\12-Oct-2023\0\\# ub3lyp/
 6-31+g(d)\\tmpdir/M3_conf_0_1.gjf\\0,1\C,0,0.,0.,0.\C,0,1.5035,0.,0.\C
 ,0,-0.55888,0.,-1.28656\C,0,-0.82152,0.01422,1.11582\C,0,-1.93633,0.03
 156,-1.45273\C,0,-2.20836,0.02843,0.94909\H,0,-0.38879,0.01577,2.11308
 \C,0,-2.76188,0.03797,-0.32744\H,0,-2.36675,0.04329,-2.45092\H,0,-2.85
 607,0.03384,1.82077\H,0,-3.84096,0.05,-0.45011\H,0,1.85048,0.87612,-0.
 58055\H,0,1.93127,-0.05592,1.00328\H,0,1.84598,-0.81777,-0.66104\H,0,0
 .20176,0.02501,-2.08604\\Version=ES64L-G16RevA.03\State=1-A\HF=-271.56
 94773\S2=0.\S2-1=0.\S2A=0.\RMSD=6.579e-09\Dipole=0.1622679,0.0146496,-
 0.0216891\Quadrupole=1.9339817,-3.8129266,1.8789449,-0.0317006,-0.2460
 551,-0.0690197\PG=C01 [X(C7H8)]\\@


 EVERYBODY NEEDS BEAUTY AS WELL AS BREAD, PLACES TO PLAY IN AND PRAY IN,
 WHERE NATURE MAY HEAL AND CHEER AND GIVE STRENGTH TO BODY AND SOUL ALIKE.

                                    -- JOHN MUIR
 Job cpu time:       0 days  0 hours  2 minutes 52.8 seconds.
 Elapsed time:       0 days  0 hours  0 minutes 46.6 seconds.
 File lengths (MBytes):  RWF=     20 Int=      0 D2E=      0 Chk=      3 Scr=      1
 Normal termination of Gaussian 16 at Thu Oct 12 15:28:54 2023.
