 Entering Gaussian System, Link 0=g16
 Initial command:
 /share/apps/gaussian/g16/l1.exe "/tmp/58287.mgr/Gau-22603.inp" -scrdir="/tmp/58287.mgr/"
 Entering Link 1 = /share/apps/gaussian/g16/l1.exe PID=     22604.
  
 Copyright (c) 1988,1990,1992,1993,1995,1998,2003,2009,2016,
            Gaussian, Inc.  All Rights Reserved.
  
 This is part of the Gaussian(R) 16 program.  It is based on
 the Gaussian(R) 09 system (copyright 2009, Gaussian, Inc.),
 the Gaussian(R) 03 system (copyright 2003, Gaussian, Inc.),
 the Gaussian(R) 98 system (copyright 1998, Gaussian, Inc.),
 the Gaussian(R) 94 system (copyright 1995, Gaussian, Inc.),
 the Gaussian 92(TM) system (copyright 1992, Gaussian, Inc.),
 the Gaussian 90(TM) system (copyright 1990, Gaussian, Inc.),
 the Gaussian 88(TM) system (copyright 1988, Gaussian, Inc.),
 the Gaussian 86(TM) system (copyright 1986, Carnegie Mellon
 University), and the Gaussian 82(TM) system (copyright 1983,
 Carnegie Mellon University). Gaussian is a federally registered
 trademark of Gaussian, Inc.
  
 This software contains proprietary and confidential information,
 including trade secrets, belonging to Gaussian, Inc.
  
 This software is provided under written license and may be
 used, copied, transmitted, or stored only in accord with that
 written license.
  
 The following legend is applicable only to US Government
 contracts under FAR:
  
                    RESTRICTED RIGHTS LEGEND
  
 Use, reproduction and disclosure by the US Government is
 subject to restrictions as set forth in subparagraphs (a)
 and (c) of the Commercial Computer Software - Restricted
 Rights clause in FAR 52.227-19.
  
 Gaussian, Inc.
 340 Quinnipiac St., Bldg. 40, Wallingford CT 06492
  
  
 ---------------------------------------------------------------
 Warning -- This program may not be used in any manner that
 competes with the business of Gaussian, Inc. or will provide
 assistance to any competitor of Gaussian, Inc.  The licensee
 of this program is prohibited from giving any competitor of
 Gaussian, Inc. access to this program.  By using this program,
 the user acknowledges that Gaussian, Inc. is engaged in the
 business of creating and licensing software in the field of
 computational chemistry and represents and warrants to the
 licensee that it is not a competitor of Gaussian, Inc. and that
 it will not use this program in any manner prohibited above.
 ---------------------------------------------------------------
  

 Cite this work as:
 Gaussian 16, Revision A.03,
 M. J. Frisch, G. W. Trucks, H. B. Schlegel, G. E. Scuseria, 
 M. A. Robb, J. R. Cheeseman, G. Scalmani, V. Barone, 
 G. A. Petersson, H. Nakatsuji, X. Li, M. Caricato, A. V. Marenich, 
 J. Bloino, B. G. Janesko, R. Gomperts, B. Mennucci, H. P. Hratchian, 
 J. V. Ortiz, A. F. Izmaylov, J. L. Sonnenberg, D. Williams-Young, 
 F. Ding, F. Lipparini, F. Egidi, J. Goings, B. Peng, A. Petrone, 
 T. Henderson, D. Ranasinghe, V. G. Zakrzewski, J. Gao, N. Rega, 
 G. Zheng, W. Liang, M. Hada, M. Ehara, K. Toyota, R. Fukuda, 
 J. Hasegawa, M. Ishida, T. Nakajima, Y. Honda, O. Kitao, H. Nakai, 
 T. Vreven, K. Throssell, J. A. Montgomery, Jr., J. E. Peralta, 
 F. Ogliaro, M. J. Bearpark, J. J. Heyd, E. N. Brothers, K. N. Kudin, 
 V. N. Staroverov, T. A. Keith, R. Kobayashi, J. Normand, 
 K. Raghavachari, A. P. Rendell, J. C. Burant, S. S. Iyengar, 
 J. Tomasi, M. Cossi, J. M. Millam, M. Klene, C. Adamo, R. Cammi, 
 J. W. Ochterski, R. L. Martin, K. Morokuma, O. Farkas, 
 J. B. Foresman, and D. J. Fox, Gaussian, Inc., Wallingford CT, 2016.
 
 ******************************************
 Gaussian 16:  ES64L-G16RevA.03 25-Dec-2016
                12-Oct-2023 
 ******************************************
 %nprocshared=4
 Will use up to    4 processors via shared memory.
 %mem=4GB
 ------------------
 # ub3lyp/6-31+g(d)
 ------------------
 1/38=1,172=1/1;
 2/12=2,17=6,18=5,40=1/2;
 3/5=1,6=6,7=11,11=2,25=1,30=1,74=-5,116=2/1,2,3;
 4//1;
 5/5=2,38=5/2;
 6/7=2,8=2,9=2,10=2,28=1/1;
 99/5=1,9=1/99;
 -----------------------
 tmpdir/M3_conf_0_16.gjf
 -----------------------
 Symbolic Z-matrix:
 Charge =  0 Multiplicity = 1
 C                     0.        0.        0. 
 C                     1.5168    0.        0. 
 C                     2.10048   0.        1.41191 
 C                    -0.55888  -1.00055   0.80878 
 C                    -0.82152   0.85883  -0.71251 
 C                    -1.93633  -1.14962   0.8887 
 C                    -2.20836   0.72023  -0.61875 
 H                    -0.38879   1.63342  -1.34064 
 C                    -2.76188  -0.27852   0.17631 
 H                    -2.36675  -1.93328   1.50708 
 H                    -2.85607   1.39473  -1.17093 
 H                    -3.84096  -0.38148   0.24408 
 H                     1.86378  -1.00225  -0.31639 
 H                     1.94457   0.8154   -0.58722 
 O                     1.6937   -0.85874   2.10886 
 H                     2.87625   0.70343   1.69694 
 H                     0.20176  -1.63803   1.29192 
 
                          Input orientation:                          
 ---------------------------------------------------------------------
 Center     Atomic      Atomic             Coordinates (Angstroms)
 Number     Number       Type             X           Y           Z
 ---------------------------------------------------------------------
      1          6           0        0.000000    0.000000    0.000000
      2          6           0        1.516800    0.000000    0.000000
      3          6           0        2.100480    0.000000    1.411910
      4          6           0       -0.558880   -1.000550    0.808780
      5          6           0       -0.821520    0.858830   -0.712510
      6          6           0       -1.936330   -1.149620    0.888700
      7          6           0       -2.208360    0.720230   -0.618750
      8          1           0       -0.388790    1.633420   -1.340640
      9          6           0       -2.761880   -0.278520    0.176310
     10          1           0       -2.366750   -1.933280    1.507080
     11          1           0       -2.856070    1.394730   -1.170930
     12          1           0       -3.840960   -0.381480    0.244080
     13          1           0        1.863780   -1.002250   -0.316390
     14          1           0        1.944570    0.815400   -0.587220
     15          8           0        1.693700   -0.858740    2.108860
     16          1           0        2.876250    0.703430    1.696940
     17          1           0        0.201760   -1.638030    1.291920
 ---------------------------------------------------------------------
                    Distance matrix (angstroms):
                    1          2          3          4          5
     1  C    0.000000
     2  C    1.516800   0.000000
     3  C    2.530910   1.527800   0.000000
     4  C    1.402702   2.442063   2.904662   0.000000
     5  C    1.385696   2.590946   3.713332   2.416733   0.000000
     6  C    2.420906   3.746401   4.229800   1.387796   2.800098
     7  C    2.403838   3.844268   4.817511   2.778437   1.396899
     8  H    2.148612   2.845461   4.054757   3.403929   1.087103
     9  C    2.781482   4.291359   5.024622   2.403030   2.418380
    10  H    3.407399   4.592475   4.868549   2.150814   3.887183
    11  H    3.387253   4.736913   5.760531   3.864415   2.153307
    12  H    3.867567   5.376867   6.067130   3.387356   3.401537
    13  H    2.139692   1.106798   2.011853   2.671197   3.291104
    14  H    2.188848   1.092104   2.164649   3.393192   2.769267
    15  O    2.837842   2.283860   1.178407   2.604695   4.151687
    16  H    3.412804   2.285284   1.085299   3.936051   4.416232
    17  H    2.095926   2.466076   2.510513   1.103802   3.361421
                    6          7          8          9         10
     6  C    0.000000
     7  C    2.417177   0.000000
     8  H    3.887177   2.160064   0.000000
     9  C    1.395653   1.391404   3.404146   0.000000
    10  H    1.087096   3.403727   4.974252   2.159932   0.000000
    11  H    3.400252   1.085993   2.484602   2.150277   4.299630
    12  H    2.152484   2.150261   4.299842   1.086097   2.485266
    13  H    3.989335   4.431781   3.615234   4.707788   4.699920
    14  H    4.593586   4.154140   2.584834   4.891862   5.525289
    15  O    3.840640   5.015882   4.737792   4.891176   4.243116
    16  H    5.219959   5.587125   4.555465   5.921575   5.871740
    17  H    2.229924   3.875658   4.240461   3.446159   2.594361
                   11         12         13         14         15
    11  H    0.000000
    12  H    2.475315   0.000000
    13  H    5.362158   5.765721   0.000000
    14  H    4.870573   5.966233   1.839491   0.000000
    15  O    6.044465   5.859833   2.435438   3.183477   0.000000
    16  H    6.446865   6.957639   2.826294   2.469403   2.002118
    17  H    4.961208   4.361247   2.398580   3.547939   1.870981
                   16         17
    16  H    0.000000
    17  H    3.577621   0.000000
 Stoichiometry    C8H8O
 Framework group  C1[X(C8H8O)]
 Deg. of freedom    45
 Full point group                 C1      NOp   1
 Largest Abelian subgroup         C1      NOp   1
 Largest concise Abelian subgroup C1      NOp   1
                         Standard orientation:                         
 ---------------------------------------------------------------------
 Center     Atomic      Atomic             Coordinates (Angstroms)
 Number     Number       Type             X           Y           Z
 ---------------------------------------------------------------------
      1          6           0       -0.087423    0.522364    0.215224
      2          6           0       -1.520576    0.954331    0.460499
      3          6           0       -2.519875    0.170789   -0.388993
      4          6           0        0.102468   -0.864156    0.310482
      5          6           0        0.984862    1.354220   -0.064734
      6          6           0        1.366443   -1.412003    0.142524
      7          6           0        2.254174    0.801539   -0.251062
      8          1           0        0.838428    2.428979   -0.137130
      9          6           0        2.443499   -0.572996   -0.147072
     10          1           0        1.513046   -2.485740    0.228396
     11          1           0        3.096340    1.449158   -0.476289
     12          1           0        3.433174   -0.996208   -0.292131
     13          1           0       -1.829864    0.581509    1.455661
     14          1           0       -1.671968    2.028029    0.330327
     15          8           0       -2.426655   -1.000343   -0.297321
     16          1           0       -3.285860    0.680379   -0.964719
     17          1           0       -0.821483   -1.407890    0.573251
 ---------------------------------------------------------------------
 Rotational constants (GHZ):           3.8331406           1.2029215           0.9596152
 Standard basis: 6-31+G(d) (6D, 7F)
 There are   187 symmetry adapted cartesian basis functions of A   symmetry.
 There are   187 symmetry adapted basis functions of A   symmetry.
   187 basis functions,   320 primitive gaussians,   187 cartesian basis functions
    32 alpha electrons       32 beta electrons
       nuclear repulsion energy       404.8587698413 Hartrees.
 NAtoms=   17 NActive=   17 NUniq=   17 SFac= 1.00D+00 NAtFMM=   60 NAOKFM=F Big=F
 Integral buffers will be    131072 words long.
 Raffenetti 2 integral format.
 Two-electron integral symmetry is turned on.
 One-electron integrals computed using PRISM.
 NBasis=   187 RedAO= T EigKep=  3.60D-06  NBF=   187
 NBsUse=   187 1.00D-06 EigRej= -1.00D+00 NBFU=   187
 ExpMin= 4.38D-02 ExpMax= 5.48D+03 ExpMxC= 8.25D+02 IAcc=3 IRadAn=         5 AccDes= 0.00D+00
 Harris functional with IExCor=  402 and IRadAn=       5 diagonalized for initial guess.
 HarFok:  IExCor=  402 AccDes= 0.00D+00 IRadAn=         5 IDoV= 1 UseB2=F ITyADJ=14
 ICtDFT=  3500011 ScaDFX=  1.000000  1.000000  1.000000  1.000000
 FoFCou: FMM=F IPFlag=           0 FMFlag=      100000 FMFlg1=           0
         NFxFlg=           0 DoJE=T BraDBF=F KetDBF=T FulRan=T
         wScrn=  0.000000 ICntrl=       500 IOpCl=  0 I1Cent=   200000004 NGrid=           0
         NMat0=    1 NMatS0=      1 NMatT0=    0 NMatD0=    1 NMtDS0=    0 NMtDT0=    0
 Petite list used in FoFCou.
 Initial guess <Sx>= 0.0000 <Sy>= 0.0000 <Sz>= 0.0000 <S**2>=-0.0000 S=-0.0000
 Keep R1 and R2 ints in memory in canonical form, NReq=313055663.
 Requested convergence on RMS density matrix=1.00D-08 within 128 cycles.
 Requested convergence on MAX density matrix=1.00D-06.
 Requested convergence on             energy=1.00D-06.
 No special actions if energy rises.
 SCF Done:  E(UB3LYP) =  -384.869729507     A.U. after   15 cycles
            NFock= 15  Conv=0.36D-08     -V/T= 2.0088
 <Sx>= 0.0000 <Sy>= 0.0000 <Sz>= 0.0000 <S**2>=-0.0000 S=-0.0000
 <L.S>= 0.000000000000E+00
 Annihilation of the first spin contaminant:
 S**2 before annihilation    -0.0000,   after    -0.0000

 **********************************************************************

            Population analysis using the SCF density.

 **********************************************************************

 Orbital symmetries:
 Alpha Orbitals:
       Occupied  (A) (A) (A) (A) (A) (A) (A) (A) (A) (A) (A) (A)
                 (A) (A) (A) (A) (A) (A) (A) (A) (A) (A) (A) (A)
                 (A) (A) (A) (A) (A) (A) (A) (A)
       Virtual   (A) (A) (A) (A) (A) (A) (A) (A) (A) (A) (A) (A)
                 (A) (A) (A) (A) (A) (A) (A) (A) (A) (A) (A) (A)
                 (A) (A) (A) (A) (A) (A) (A) (A) (A) (A) (A) (A)
                 (A) (A) (A) (A) (A) (A) (A) (A) (A) (A) (A) (A)
                 (A) (A) (A) (A) (A) (A) (A) (A) (A) (A) (A) (A)
                 (A) (A) (A) (A) (A) (A) (A) (A) (A) (A) (A) (A)
                 (A) (A) (A) (A) (A) (A) (A) (A) (A) (A) (A) (A)
                 (A) (A) (A) (A) (A) (A) (A) (A) (A) (A) (A) (A)
                 (A) (A) (A) (A) (A) (A) (A) (A) (A) (A) (A) (A)
                 (A) (A) (A) (A) (A) (A) (A) (A) (A) (A) (A) (A)
                 (A) (A) (A) (A) (A) (A) (A) (A) (A) (A) (A) (A)
                 (A) (A) (A) (A) (A) (A) (A) (A) (A) (A) (A) (A)
                 (A) (A) (A) (A) (A) (A) (A) (A) (A) (A) (A)
 Beta  Orbitals:
       Occupied  (A) (A) (A) (A) (A) (A) (A) (A) (A) (A) (A) (A)
                 (A) (A) (A) (A) (A) (A) (A) (A) (A) (A) (A) (A)
                 (A) (A) (A) (A) (A) (A) (A) (A)
       Virtual   (A) (A) (A) (A) (A) (A) (A) (A) (A) (A) (A) (A)
                 (A) (A) (A) (A) (A) (A) (A) (A) (A) (A) (A) (A)
                 (A) (A) (A) (A) (A) (A) (A) (A) (A) (A) (A) (A)
                 (A) (A) (A) (A) (A) (A) (A) (A) (A) (A) (A) (A)
                 (A) (A) (A) (A) (A) (A) (A) (A) (A) (A) (A) (A)
                 (A) (A) (A) (A) (A) (A) (A) (A) (A) (A) (A) (A)
                 (A) (A) (A) (A) (A) (A) (A) (A) (A) (A) (A) (A)
                 (A) (A) (A) (A) (A) (A) (A) (A) (A) (A) (A) (A)
                 (A) (A) (A) (A) (A) (A) (A) (A) (A) (A) (A) (A)
                 (A) (A) (A) (A) (A) (A) (A) (A) (A) (A) (A) (A)
                 (A) (A) (A) (A) (A) (A) (A) (A) (A) (A) (A) (A)
                 (A) (A) (A) (A) (A) (A) (A) (A) (A) (A) (A) (A)
                 (A) (A) (A) (A) (A) (A) (A) (A) (A) (A) (A)
 The electronic state is 1-A.
 Alpha  occ. eigenvalues --  -19.16936 -10.29288 -10.21008 -10.20434 -10.19628
 Alpha  occ. eigenvalues --  -10.19462 -10.19242 -10.19159 -10.18092  -1.09236
 Alpha  occ. eigenvalues --   -0.86287  -0.79103  -0.74773  -0.71788  -0.62098
 Alpha  occ. eigenvalues --   -0.60660  -0.57991  -0.51442  -0.50284  -0.47551
 Alpha  occ. eigenvalues --   -0.46478  -0.45288  -0.43660  -0.41569  -0.40708
 Alpha  occ. eigenvalues --   -0.38435  -0.36400  -0.34985  -0.34013  -0.27198
 Alpha  occ. eigenvalues --   -0.25237  -0.24488
 Alpha virt. eigenvalues --   -0.05025  -0.01146  -0.00935   0.00532   0.01482
 Alpha virt. eigenvalues --    0.02796   0.02823   0.04340   0.04442   0.05765
 Alpha virt. eigenvalues --    0.06595   0.06752   0.07606   0.07799   0.09804
 Alpha virt. eigenvalues --    0.10138   0.10846   0.11203   0.12667   0.13275
 Alpha virt. eigenvalues --    0.14479   0.14831   0.15720   0.16022   0.17056
 Alpha virt. eigenvalues --    0.17260   0.17651   0.18299   0.18858   0.20032
 Alpha virt. eigenvalues --    0.20592   0.21179   0.22300   0.22622   0.23264
 Alpha virt. eigenvalues --    0.23808   0.24540   0.25187   0.25870   0.26091
 Alpha virt. eigenvalues --    0.27130   0.28025   0.29194   0.30186   0.30585
 Alpha virt. eigenvalues --    0.31094   0.32331   0.32961   0.34293   0.35904
 Alpha virt. eigenvalues --    0.36411   0.37521   0.39603   0.40067   0.46129
 Alpha virt. eigenvalues --    0.56725   0.60595   0.64820   0.67632   0.67953
 Alpha virt. eigenvalues --    0.68726   0.69982   0.71619   0.72497   0.72652
 Alpha virt. eigenvalues --    0.73422   0.74508   0.75486   0.76762   0.78103
 Alpha virt. eigenvalues --    0.78964   0.80830   0.82789   0.85536   0.88197
 Alpha virt. eigenvalues --    0.90364   0.92264   0.93556   0.95107   0.96266
 Alpha virt. eigenvalues --    0.98996   1.00891   1.03373   1.05804   1.08783
 Alpha virt. eigenvalues --    1.09372   1.10799   1.13253   1.16638   1.18036
 Alpha virt. eigenvalues --    1.20513   1.22100   1.24200   1.26939   1.28059
 Alpha virt. eigenvalues --    1.32283   1.34935   1.41586   1.43856   1.45416
 Alpha virt. eigenvalues --    1.48138   1.48727   1.50176   1.50581   1.52993
 Alpha virt. eigenvalues --    1.55425   1.65538   1.66570   1.78499   1.81919
 Alpha virt. eigenvalues --    1.83833   1.85429   1.88262   1.90009   1.95054
 Alpha virt. eigenvalues --    1.96504   1.98119   2.01974   2.08248   2.09712
 Alpha virt. eigenvalues --    2.12645   2.15894   2.16684   2.17311   2.20657
 Alpha virt. eigenvalues --    2.23850   2.29995   2.31177   2.35085   2.35519
 Alpha virt. eigenvalues --    2.37583   2.46170   2.57286   2.60801   2.63381
 Alpha virt. eigenvalues --    2.65579   2.66909   2.74717   2.75303   2.76616
 Alpha virt. eigenvalues --    2.79990   2.90247   2.92832   3.06122   3.12200
 Alpha virt. eigenvalues --    3.41544   4.18747   4.24042   4.24795   4.26477
 Alpha virt. eigenvalues --    4.30755   4.38462   4.40504   4.51352   4.72649
  Beta  occ. eigenvalues --  -19.16936 -10.29288 -10.21008 -10.20434 -10.19628
  Beta  occ. eigenvalues --  -10.19462 -10.19242 -10.19159 -10.18092  -1.09236
  Beta  occ. eigenvalues --   -0.86287  -0.79103  -0.74773  -0.71788  -0.62098
  Beta  occ. eigenvalues --   -0.60660  -0.57991  -0.51442  -0.50284  -0.47551
  Beta  occ. eigenvalues --   -0.46478  -0.45288  -0.43660  -0.41569  -0.40708
  Beta  occ. eigenvalues --   -0.38435  -0.36400  -0.34985  -0.34013  -0.27198
  Beta  occ. eigenvalues --   -0.25237  -0.24488
  Beta virt. eigenvalues --   -0.05025  -0.01146  -0.00935   0.00532   0.01482
  Beta virt. eigenvalues --    0.02796   0.02823   0.04340   0.04442   0.05765
  Beta virt. eigenvalues --    0.06595   0.06752   0.07606   0.07799   0.09804
  Beta virt. eigenvalues --    0.10138   0.10846   0.11203   0.12667   0.13275
  Beta virt. eigenvalues --    0.14479   0.14831   0.15720   0.16022   0.17056
  Beta virt. eigenvalues --    0.17260   0.17651   0.18299   0.18858   0.20032
  Beta virt. eigenvalues --    0.20592   0.21179   0.22300   0.22622   0.23264
  Beta virt. eigenvalues --    0.23808   0.24540   0.25187   0.25870   0.26091
  Beta virt. eigenvalues --    0.27130   0.28025   0.29194   0.30186   0.30585
  Beta virt. eigenvalues --    0.31094   0.32331   0.32961   0.34293   0.35904
  Beta virt. eigenvalues --    0.36411   0.37521   0.39603   0.40067   0.46129
  Beta virt. eigenvalues --    0.56725   0.60595   0.64820   0.67632   0.67953
  Beta virt. eigenvalues --    0.68726   0.69982   0.71619   0.72497   0.72652
  Beta virt. eigenvalues --    0.73422   0.74508   0.75486   0.76762   0.78103
  Beta virt. eigenvalues --    0.78964   0.80830   0.82789   0.85536   0.88197
  Beta virt. eigenvalues --    0.90364   0.92264   0.93556   0.95107   0.96266
  Beta virt. eigenvalues --    0.98996   1.00891   1.03373   1.05804   1.08783
  Beta virt. eigenvalues --    1.09372   1.10799   1.13253   1.16638   1.18036
  Beta virt. eigenvalues --    1.20513   1.22100   1.24200   1.26939   1.28059
  Beta virt. eigenvalues --    1.32283   1.34935   1.41586   1.43856   1.45416
  Beta virt. eigenvalues --    1.48138   1.48727   1.50176   1.50581   1.52993
  Beta virt. eigenvalues --    1.55425   1.65538   1.66570   1.78499   1.81919
  Beta virt. eigenvalues --    1.83833   1.85429   1.88262   1.90009   1.95054
  Beta virt. eigenvalues --    1.96504   1.98119   2.01974   2.08248   2.09712
  Beta virt. eigenvalues --    2.12645   2.15894   2.16684   2.17311   2.20657
  Beta virt. eigenvalues --    2.23850   2.29995   2.31177   2.35085   2.35519
  Beta virt. eigenvalues --    2.37583   2.46170   2.57286   2.60801   2.63381
  Beta virt. eigenvalues --    2.65579   2.66909   2.74717   2.75303   2.76616
  Beta virt. eigenvalues --    2.79990   2.90247   2.92832   3.06122   3.12200
  Beta virt. eigenvalues --    3.41544   4.18747   4.24042   4.24795   4.26477
  Beta virt. eigenvalues --    4.30755   4.38462   4.40504   4.51352   4.72649
          Condensed to atoms (all electrons):
               1          2          3          4          5          6
     1  C   10.740409  -0.914507  -0.158424  -0.120870  -2.890074  -0.367002
     2  C   -0.914507   6.759901   0.177521  -0.369409   0.737689  -0.181445
     3  C   -0.158424   0.177521   4.916911   0.047952   0.082698   0.013615
     4  C   -0.120870  -0.369409   0.047952  11.599073  -5.048178  -0.159488
     5  C   -2.890074   0.737689   0.082698  -5.048178  14.183089  -0.808604
     6  C   -0.367002  -0.181445   0.013615  -0.159488  -0.808604   6.776557
     7  C   -0.056085  -0.080554  -0.001156  -0.004968  -0.380337   0.115460
     8  H    0.044822  -0.021636  -0.000735   0.029391   0.194435  -0.013712
     9  C   -0.706230   0.025307   0.006564   0.121708   0.512489   0.328151
    10  H    0.031504  -0.001323  -0.000393  -0.019344  -0.009714   0.303249
    11  H    0.039283  -0.003194  -0.000058  -0.002822  -0.041972   0.008976
    12  H    0.001916   0.001187  -0.000036   0.008190   0.004590  -0.004256
    13  H   -0.060552   0.417554  -0.059967   0.065583  -0.082990   0.008528
    14  H   -0.190343   0.425147  -0.010582  -0.043212   0.085532   0.006548
    15  O   -0.022162  -0.176760   0.470288  -0.102445  -0.088597   0.135309
    16  H   -0.024152  -0.118302   0.405779   0.013909  -0.017389   0.014820
    17  H   -0.037839  -0.017617  -0.010239   0.312020   0.032730   0.010772
               7          8          9         10         11         12
     1  C   -0.056085   0.044822  -0.706230   0.031504   0.039283   0.001916
     2  C   -0.080554  -0.021636   0.025307  -0.001323  -0.003194   0.001187
     3  C   -0.001156  -0.000735   0.006564  -0.000393  -0.000058  -0.000036
     4  C   -0.004968   0.029391   0.121708  -0.019344  -0.002822   0.008190
     5  C   -0.380337   0.194435   0.512489  -0.009714  -0.041972   0.004590
     6  C    0.115460  -0.013712   0.328151   0.303249   0.008976  -0.004256
     7  C    5.828659   0.029236   0.394601   0.011411   0.300667   0.003558
     8  H    0.029236   0.555094   0.012977   0.000019  -0.004764  -0.000157
     9  C    0.394601   0.012977   5.280599  -0.025210  -0.008511   0.276428
    10  H    0.011411   0.000019  -0.025210   0.538859  -0.000166  -0.004839
    11  H    0.300667  -0.004764  -0.008511  -0.000166   0.540809  -0.005094
    12  H    0.003558  -0.000157   0.276428  -0.004839  -0.005094   0.543690
    13  H    0.005030   0.000032  -0.001580  -0.000008   0.000002   0.000000
    14  H    0.010508   0.003569   0.000747   0.000003  -0.000002  -0.000000
    15  O    0.029154   0.000173  -0.025879   0.000511   0.000002   0.000017
    16  H    0.004238  -0.000002  -0.001766   0.000000  -0.000000   0.000000
    17  H   -0.010091  -0.000190   0.014914  -0.004226   0.000016  -0.000134
              13         14         15         16         17
     1  C   -0.060552  -0.190343  -0.022162  -0.024152  -0.037839
     2  C    0.417554   0.425147  -0.176760  -0.118302  -0.017617
     3  C   -0.059967  -0.010582   0.470288   0.405779  -0.010239
     4  C    0.065583  -0.043212  -0.102445   0.013909   0.312020
     5  C   -0.082990   0.085532  -0.088597  -0.017389   0.032730
     6  C    0.008528   0.006548   0.135309   0.014820   0.010772
     7  C    0.005030   0.010508   0.029154   0.004238  -0.010091
     8  H    0.000032   0.003569   0.000173  -0.000002  -0.000190
     9  C   -0.001580   0.000747  -0.025879  -0.001766   0.014914
    10  H   -0.000008   0.000003   0.000511   0.000000  -0.004226
    11  H    0.000002  -0.000002   0.000002  -0.000000   0.000016
    12  H    0.000000  -0.000000   0.000017   0.000000  -0.000134
    13  H    0.493957  -0.024267  -0.013239   0.003788   0.001332
    14  H   -0.024267   0.530327   0.010209   0.003394   0.000172
    15  O   -0.013239   0.010209   8.181574  -0.057055  -0.030187
    16  H    0.003788   0.003394  -0.057055   0.602819  -0.000309
    17  H    0.001332   0.000172  -0.030187  -0.000309   0.506531
          Atomic-Atomic Spin Densities.
               1          2          3          4          5          6
     1  C    0.000000  -0.000000  -0.000000   0.000000  -0.000000  -0.000000
     2  C   -0.000000  -0.000000   0.000000   0.000000  -0.000000   0.000000
     3  C   -0.000000   0.000000   0.000000   0.000000   0.000000  -0.000000
     4  C    0.000000   0.000000   0.000000  -0.000000   0.000000   0.000000
     5  C   -0.000000  -0.000000   0.000000   0.000000   0.000000  -0.000000
     6  C   -0.000000   0.000000  -0.000000   0.000000  -0.000000   0.000000
     7  C    0.000000  -0.000000  -0.000000  -0.000000  -0.000000   0.000000
     8  H   -0.000000   0.000000   0.000000  -0.000000   0.000000   0.000000
     9  C   -0.000000   0.000000   0.000000  -0.000000   0.000000   0.000000
    10  H    0.000000  -0.000000   0.000000  -0.000000   0.000000   0.000000
    11  H    0.000000   0.000000  -0.000000   0.000000   0.000000  -0.000000
    12  H    0.000000   0.000000  -0.000000  -0.000000  -0.000000   0.000000
    13  H    0.000000   0.000000  -0.000000  -0.000000  -0.000000   0.000000
    14  H    0.000000  -0.000000  -0.000000   0.000000  -0.000000  -0.000000
    15  O   -0.000000   0.000000  -0.000000   0.000000  -0.000000  -0.000000
    16  H   -0.000000   0.000000  -0.000000   0.000000  -0.000000   0.000000
    17  H   -0.000000  -0.000000  -0.000000   0.000000  -0.000000  -0.000000
               7          8          9         10         11         12
     1  C    0.000000  -0.000000  -0.000000   0.000000   0.000000   0.000000
     2  C   -0.000000   0.000000   0.000000  -0.000000   0.000000   0.000000
     3  C   -0.000000   0.000000   0.000000   0.000000  -0.000000  -0.000000
     4  C   -0.000000  -0.000000  -0.000000  -0.000000   0.000000  -0.000000
     5  C   -0.000000   0.000000   0.000000   0.000000   0.000000  -0.000000
     6  C    0.000000   0.000000   0.000000   0.000000  -0.000000   0.000000
     7  C    0.000000   0.000000  -0.000000   0.000000  -0.000000   0.000000
     8  H    0.000000   0.000000  -0.000000  -0.000000  -0.000000   0.000000
     9  C   -0.000000  -0.000000   0.000000  -0.000000   0.000000  -0.000000
    10  H    0.000000  -0.000000  -0.000000   0.000000   0.000000  -0.000000
    11  H   -0.000000  -0.000000   0.000000   0.000000   0.000000  -0.000000
    12  H    0.000000   0.000000  -0.000000  -0.000000  -0.000000   0.000000
    13  H    0.000000  -0.000000  -0.000000  -0.000000   0.000000  -0.000000
    14  H   -0.000000   0.000000   0.000000   0.000000  -0.000000   0.000000
    15  O    0.000000   0.000000  -0.000000   0.000000  -0.000000   0.000000
    16  H    0.000000   0.000000  -0.000000   0.000000  -0.000000   0.000000
    17  H   -0.000000   0.000000   0.000000   0.000000  -0.000000   0.000000
              13         14         15         16         17
     1  C    0.000000   0.000000  -0.000000  -0.000000  -0.000000
     2  C    0.000000  -0.000000   0.000000   0.000000  -0.000000
     3  C   -0.000000  -0.000000  -0.000000  -0.000000  -0.000000
     4  C   -0.000000   0.000000   0.000000   0.000000   0.000000
     5  C   -0.000000  -0.000000  -0.000000  -0.000000  -0.000000
     6  C    0.000000  -0.000000  -0.000000   0.000000  -0.000000
     7  C    0.000000  -0.000000   0.000000   0.000000  -0.000000
     8  H   -0.000000   0.000000   0.000000   0.000000   0.000000
     9  C   -0.000000   0.000000  -0.000000  -0.000000   0.000000
    10  H   -0.000000   0.000000   0.000000   0.000000   0.000000
    11  H    0.000000  -0.000000  -0.000000  -0.000000  -0.000000
    12  H   -0.000000   0.000000   0.000000   0.000000   0.000000
    13  H   -0.000000   0.000000   0.000000   0.000000   0.000000
    14  H    0.000000  -0.000000   0.000000  -0.000000  -0.000000
    15  O    0.000000   0.000000   0.000000   0.000000   0.000000
    16  H    0.000000  -0.000000   0.000000  -0.000000  -0.000000
    17  H    0.000000  -0.000000   0.000000  -0.000000  -0.000000
 Mulliken charges and spin densities:
               1          2
     1  C    0.690305  -0.000000
     2  C   -0.659559  -0.000000
     3  C    0.120262   0.000000
     4  C   -0.327091  -0.000000
     5  C   -0.465397   0.000000
     6  C   -0.187478  -0.000000
     7  C   -0.199332  -0.000000
     8  H    0.171449  -0.000000
     9  C   -0.205309   0.000000
    10  H    0.179668   0.000000
    11  H    0.176829   0.000000
    12  H    0.174941   0.000000
    13  H    0.246798   0.000000
    14  H    0.192252  -0.000000
    15  O   -0.310913  -0.000000
    16  H    0.170229  -0.000000
    17  H    0.232346   0.000000
 Sum of Mulliken charges =  -0.00000  -0.00000
 Mulliken charges and spin densities with hydrogens summed into heavy atoms:
               1          2
     1  C    0.690305  -0.000000
     2  C   -0.220509  -0.000000
     3  C    0.290491   0.000000
     4  C   -0.094745  -0.000000
     5  C   -0.293947   0.000000
     6  C   -0.007810   0.000000
     7  C   -0.022504  -0.000000
     9  C   -0.030368   0.000000
    15  O   -0.310913  -0.000000
 Electronic spatial extent (au):  <R**2>=           1199.7476
 Charge=              0.0000 electrons
 Dipole moment (field-independent basis, Debye):
    X=             -0.4388    Y=              2.0961    Z=              0.1274  Tot=              2.1454
 Quadrupole moment (field-independent basis, Debye-Ang):
   XX=            -49.0849   YY=            -51.6262   ZZ=            -55.7157
   XY=             -6.0011   XZ=             -1.5017   YZ=             -1.8137
 Traceless Quadrupole moment (field-independent basis, Debye-Ang):
   XX=              3.0574   YY=              0.5161   ZZ=             -3.5735
   XY=             -6.0011   XZ=             -1.5017   YZ=             -1.8137
 Octapole moment (field-independent basis, Debye-Ang**2):
  XXX=             -6.7701  YYY=             -0.7640  ZZZ=             -0.7856  XYY=              5.0484
  XXY=             13.6347  XXZ=             -4.2732  XZZ=            -12.1161  YZZ=             -0.8428
  YYZ=              0.1159  XYZ=              2.3444
 Hexadecapole moment (field-independent basis, Debye-Ang**3):
 XXXX=          -1073.4636 YYYY=           -378.8020 ZZZZ=           -105.9105 XXXY=            -35.5258
 XXXZ=             -7.4587 YYYX=             -2.2296 YYYZ=             -5.7408 ZZZX=              3.3395
 ZZZY=              1.1099 XXYY=           -259.2202 XXZZ=           -212.3085 YYZZ=            -91.7060
 XXYZ=            -11.1362 YYXZ=             -3.1514 ZZXY=              2.3813
 N-N= 4.048587698413D+02 E-N=-1.703535926656D+03  KE= 3.815047391804D+02
                          Isotropic Fermi Contact Couplings
        Atom                 a.u.       MegaHertz       Gauss      10(-4) cm-1
     1  C(13)              0.00000       0.00000       0.00000       0.00000
     2  C(13)             -0.00000      -0.00000      -0.00000      -0.00000
     3  C(13)              0.00000       0.00000       0.00000       0.00000
     4  C(13)              0.00000       0.00000       0.00000       0.00000
     5  C(13)              0.00000       0.00000       0.00000       0.00000
     6  C(13)             -0.00000      -0.00000      -0.00000      -0.00000
     7  C(13)              0.00000       0.00000       0.00000       0.00000
     8  H(1)              -0.00000      -0.00000      -0.00000      -0.00000
     9  C(13)             -0.00000      -0.00000      -0.00000      -0.00000
    10  H(1)               0.00000       0.00000       0.00000       0.00000
    11  H(1)              -0.00000      -0.00000      -0.00000      -0.00000
    12  H(1)               0.00000       0.00000       0.00000       0.00000
    13  H(1)              -0.00000      -0.00000      -0.00000      -0.00000
    14  H(1)               0.00000       0.00000       0.00000       0.00000
    15  O(17)              0.00000      -0.00000      -0.00000      -0.00000
    16  H(1)              -0.00000      -0.00000      -0.00000      -0.00000
    17  H(1)               0.00000       0.00000       0.00000       0.00000
 --------------------------------------------------------
       Center         ----  Spin Dipole Couplings  ----
                      3XX-RR        3YY-RR        3ZZ-RR
 --------------------------------------------------------
     1   Atom        0.000000     -0.000000      0.000000
     2   Atom       -0.000000     -0.000000      0.000000
     3   Atom       -0.000000      0.000000      0.000000
     4   Atom       -0.000000      0.000000     -0.000000
     5   Atom       -0.000000     -0.000000      0.000000
     6   Atom        0.000000     -0.000000     -0.000000
     7   Atom       -0.000000      0.000000     -0.000000
     8   Atom        0.000000     -0.000000      0.000000
     9   Atom       -0.000000     -0.000000      0.000000
    10   Atom        0.000000     -0.000000      0.000000
    11   Atom        0.000000     -0.000000     -0.000000
    12   Atom       -0.000000      0.000000     -0.000000
    13   Atom        0.000000      0.000000     -0.000000
    14   Atom        0.000000     -0.000000      0.000000
    15   Atom        0.000000     -0.000000      0.000000
    16   Atom        0.000000     -0.000000      0.000000
    17   Atom        0.000000     -0.000000     -0.000000
 --------------------------------------------------------
                        XY            XZ            YZ
 --------------------------------------------------------
     1   Atom        0.000000     -0.000000      0.000000
     2   Atom       -0.000000     -0.000000      0.000000
     3   Atom       -0.000000      0.000000     -0.000000
     4   Atom        0.000000     -0.000000     -0.000000
     5   Atom       -0.000000     -0.000000      0.000000
     6   Atom        0.000000     -0.000000     -0.000000
     7   Atom       -0.000000      0.000000     -0.000000
     8   Atom       -0.000000      0.000000     -0.000000
     9   Atom       -0.000000      0.000000      0.000000
    10   Atom        0.000000     -0.000000      0.000000
    11   Atom       -0.000000     -0.000000      0.000000
    12   Atom       -0.000000     -0.000000      0.000000
    13   Atom       -0.000000      0.000000      0.000000
    14   Atom        0.000000     -0.000000      0.000000
    15   Atom        0.000000     -0.000000     -0.000000
    16   Atom        0.000000     -0.000000      0.000000
    17   Atom       -0.000000     -0.000000     -0.000000
 --------------------------------------------------------


 ---------------------------------------------------------------------------------
              Anisotropic Spin Dipole Couplings in Principal Axis System
 ---------------------------------------------------------------------------------

       Atom             a.u.   MegaHertz   Gauss  10(-4) cm-1        Axes

              Baa    -0.0000    -0.000    -0.000    -0.000 -0.2368  0.9060 -0.3507
     1 C(13)  Bbb     0.0000     0.000     0.000     0.000  0.3383  0.4153  0.8444
              Bcc     0.0000     0.000     0.000     0.000  0.9107  0.0813 -0.4049
 
              Baa    -0.0000    -0.000    -0.000    -0.000  0.6170  0.7736  0.1444
     2 C(13)  Bbb    -0.0000    -0.000    -0.000    -0.000  0.6292 -0.5951  0.4999
              Bcc     0.0000     0.000     0.000     0.000 -0.4726  0.2176  0.8540
 
              Baa    -0.0000    -0.000    -0.000    -0.000  0.9643  0.1024 -0.2443
     3 C(13)  Bbb     0.0000     0.000     0.000     0.000  0.1467  0.5615  0.8144
              Bcc     0.0000     0.000     0.000     0.000 -0.2205  0.8211 -0.5264
 
              Baa    -0.0000    -0.000    -0.000    -0.000  0.9013 -0.4134  0.1295
     4 C(13)  Bbb    -0.0000    -0.000    -0.000    -0.000 -0.0562  0.1848  0.9812
              Bcc     0.0000     0.000     0.000     0.000  0.4295  0.8916 -0.1433
 
              Baa    -0.0000    -0.000    -0.000    -0.000 -0.5320  0.6708 -0.5167
     5 C(13)  Bbb    -0.0000    -0.000    -0.000    -0.000  0.6962  0.6939  0.1841
              Bcc     0.0000     0.000     0.000     0.000 -0.4820  0.2618  0.8361
 
              Baa    -0.0000    -0.000    -0.000    -0.000  0.2719  0.5362  0.7991
     6 C(13)  Bbb     0.0000     0.000     0.000     0.000 -0.4695  0.7988 -0.3762
              Bcc     0.0000     0.000     0.000     0.000  0.8400  0.2729 -0.4689
 
              Baa    -0.0000    -0.000    -0.000    -0.000  0.0443  0.2418  0.9693
     7 C(13)  Bbb    -0.0000    -0.000    -0.000    -0.000  0.9733  0.2082 -0.0965
              Bcc     0.0000     0.000     0.000     0.000 -0.2251  0.9477 -0.2261
 
              Baa    -0.0000    -0.000    -0.000    -0.000  0.0660  0.8490  0.5242
     8 H(1)   Bbb    -0.0000    -0.000    -0.000    -0.000  0.9865  0.0232 -0.1619
              Bcc     0.0000     0.000     0.000     0.000  0.1496 -0.5279  0.8360
 
              Baa    -0.0000    -0.000    -0.000    -0.000  0.6572  0.6619 -0.3605
     9 C(13)  Bbb     0.0000     0.000     0.000     0.000  0.7237 -0.6877  0.0567
              Bcc     0.0000     0.000     0.000     0.000  0.2104  0.2981  0.9310
 
              Baa    -0.0000    -0.000    -0.000    -0.000 -0.1691  0.9796 -0.1088
    10 H(1)   Bbb     0.0000     0.000     0.000     0.000  0.2832  0.1540  0.9466
              Bcc     0.0000     0.000     0.000     0.000  0.9440  0.1293 -0.3034
 
              Baa    -0.0000    -0.000    -0.000    -0.000  0.1310  0.9797 -0.1520
    11 H(1)   Bbb    -0.0000    -0.000    -0.000    -0.000  0.2538  0.1151  0.9604
              Bcc     0.0000     0.000     0.000     0.000  0.9583 -0.1644 -0.2335
 
              Baa    -0.0000    -0.000    -0.000    -0.000  0.8186  0.4535  0.3525
    12 H(1)   Bbb    -0.0000    -0.000    -0.000    -0.000 -0.2086 -0.3370  0.9181
              Bcc     0.0000     0.000     0.000     0.000 -0.5352  0.8251  0.1812
 
              Baa    -0.0000    -0.000    -0.000    -0.000 -0.3967 -0.1215  0.9099
    13 H(1)   Bbb     0.0000     0.000     0.000     0.000  0.1232  0.9752  0.1839
              Bcc     0.0000     0.000     0.000     0.000  0.9096 -0.1851  0.3719
 
              Baa    -0.0000    -0.000    -0.000    -0.000 -0.5754  0.7320 -0.3648
    14 H(1)   Bbb     0.0000     0.000     0.000     0.000 -0.4240  0.1145  0.8984
              Bcc     0.0000     0.000     0.000     0.000  0.6994  0.6716  0.2445
 
              Baa    -0.0000     0.000     0.000     0.000  0.6517  0.4943  0.5754
    15 O(17)  Bbb    -0.0000     0.000     0.000     0.000 -0.4486  0.8628 -0.2332
              Bcc     0.0000    -0.000    -0.000    -0.000 -0.6117 -0.1061  0.7840
 
              Baa    -0.0000    -0.000    -0.000    -0.000 -0.5280  0.7681 -0.3622
    16 H(1)   Bbb     0.0000     0.000     0.000     0.000 -0.4115  0.1417  0.9003
              Bcc     0.0000     0.000     0.000     0.000  0.7429  0.6245  0.2412
 
              Baa    -0.0000    -0.000    -0.000    -0.000  0.4086  0.8090  0.4225
    17 H(1)   Bbb     0.0000     0.000     0.000     0.000  0.0537 -0.4834  0.8737
              Bcc     0.0000     0.000     0.000     0.000  0.9111 -0.3343 -0.2410
 

 ---------------------------------------------------------------------------------

 1\1\GINC-NODE31\SP\UB3LYP\6-31+G(d)\C8H8O1\YANZ\12-Oct-2023\0\\# ub3ly
 p/6-31+g(d)\\tmpdir/M3_conf_0_16.gjf\\0,1\C,0,0.,0.,0.\C,0,1.5168,0.,0
 .\C,0,2.10048,0.,1.41191\C,0,-0.55888,-1.00055,0.80878\C,0,-0.82152,0.
 85883,-0.71251\C,0,-1.93633,-1.14962,0.8887\C,0,-2.20836,0.72023,-0.61
 875\H,0,-0.38879,1.63342,-1.34064\C,0,-2.76188,-0.27852,0.17631\H,0,-2
 .36675,-1.93328,1.50708\H,0,-2.85607,1.39473,-1.17093\H,0,-3.84096,-0.
 38148,0.24408\H,0,1.86378,-1.00225,-0.31639\H,0,1.94457,0.8154,-0.5872
 2\O,0,1.6937,-0.85874,2.10886\H,0,2.87625,0.70343,1.69694\H,0,0.20176,
 -1.63803,1.29192\\Version=ES64L-G16RevA.03\State=1-A\HF=-384.8697295\S
 2=0.\S2-1=0.\S2A=0.\RMSD=3.643e-09\Dipole=0.4060716,0.5127196,-0.53351
 67\Quadrupole=4.6090405,-0.2339635,-4.375077,2.3358811,-1.7824558,-0.5
 520048\PG=C01 [X(C8H8O1)]\\@


 WE ARE REACHING THE STAGE WHERE THE PROBLEMS WE MUST SOLVE ARE 
 GOING TO BECOME INSOLUBLE WITHOUT COMPUTERS.
 I DO NOT FEAR COMPUTERS.  I FEAR THE LACK OF THEM.

                                   -- ISSAC ASIMOV
 Job cpu time:       0 days  0 hours  4 minutes 41.1 seconds.
 Elapsed time:       0 days  0 hours  1 minutes 17.1 seconds.
 File lengths (MBytes):  RWF=     27 Int=      0 D2E=      0 Chk=      4 Scr=      1
 Normal termination of Gaussian 16 at Thu Oct 12 15:30:58 2023.
