 Entering Gaussian System, Link 0=g16
 Initial command:
 /share/apps/gaussian/g16/l1.exe "/tmp/58287.mgr/Gau-22238.inp" -scrdir="/tmp/58287.mgr/"
 Entering Link 1 = /share/apps/gaussian/g16/l1.exe PID=     22239.
  
 Copyright (c) 1988,1990,1992,1993,1995,1998,2003,2009,2016,
            Gaussian, Inc.  All Rights Reserved.
  
 This is part of the Gaussian(R) 16 program.  It is based on
 the Gaussian(R) 09 system (copyright 2009, Gaussian, Inc.),
 the Gaussian(R) 03 system (copyright 2003, Gaussian, Inc.),
 the Gaussian(R) 98 system (copyright 1998, Gaussian, Inc.),
 the Gaussian(R) 94 system (copyright 1995, Gaussian, Inc.),
 the Gaussian 92(TM) system (copyright 1992, Gaussian, Inc.),
 the Gaussian 90(TM) system (copyright 1990, Gaussian, Inc.),
 the Gaussian 88(TM) system (copyright 1988, Gaussian, Inc.),
 the Gaussian 86(TM) system (copyright 1986, Carnegie Mellon
 University), and the Gaussian 82(TM) system (copyright 1983,
 Carnegie Mellon University). Gaussian is a federally registered
 trademark of Gaussian, Inc.
  
 This software contains proprietary and confidential information,
 including trade secrets, belonging to Gaussian, Inc.
  
 This software is provided under written license and may be
 used, copied, transmitted, or stored only in accord with that
 written license.
  
 The following legend is applicable only to US Government
 contracts under FAR:
  
                    RESTRICTED RIGHTS LEGEND
  
 Use, reproduction and disclosure by the US Government is
 subject to restrictions as set forth in subparagraphs (a)
 and (c) of the Commercial Computer Software - Restricted
 Rights clause in FAR 52.227-19.
  
 Gaussian, Inc.
 340 Quinnipiac St., Bldg. 40, Wallingford CT 06492
  
  
 ---------------------------------------------------------------
 Warning -- This program may not be used in any manner that
 competes with the business of Gaussian, Inc. or will provide
 assistance to any competitor of Gaussian, Inc.  The licensee
 of this program is prohibited from giving any competitor of
 Gaussian, Inc. access to this program.  By using this program,
 the user acknowledges that Gaussian, Inc. is engaged in the
 business of creating and licensing software in the field of
 computational chemistry and represents and warrants to the
 licensee that it is not a competitor of Gaussian, Inc. and that
 it will not use this program in any manner prohibited above.
 ---------------------------------------------------------------
  

 Cite this work as:
 Gaussian 16, Revision A.03,
 M. J. Frisch, G. W. Trucks, H. B. Schlegel, G. E. Scuseria, 
 M. A. Robb, J. R. Cheeseman, G. Scalmani, V. Barone, 
 G. A. Petersson, H. Nakatsuji, X. Li, M. Caricato, A. V. Marenich, 
 J. Bloino, B. G. Janesko, R. Gomperts, B. Mennucci, H. P. Hratchian, 
 J. V. Ortiz, A. F. Izmaylov, J. L. Sonnenberg, D. Williams-Young, 
 F. Ding, F. Lipparini, F. Egidi, J. Goings, B. Peng, A. Petrone, 
 T. Henderson, D. Ranasinghe, V. G. Zakrzewski, J. Gao, N. Rega, 
 G. Zheng, W. Liang, M. Hada, M. Ehara, K. Toyota, R. Fukuda, 
 J. Hasegawa, M. Ishida, T. Nakajima, Y. Honda, O. Kitao, H. Nakai, 
 T. Vreven, K. Throssell, J. A. Montgomery, Jr., J. E. Peralta, 
 F. Ogliaro, M. J. Bearpark, J. J. Heyd, E. N. Brothers, K. N. Kudin, 
 V. N. Staroverov, T. A. Keith, R. Kobayashi, J. Normand, 
 K. Raghavachari, A. P. Rendell, J. C. Burant, S. S. Iyengar, 
 J. Tomasi, M. Cossi, J. M. Millam, M. Klene, C. Adamo, R. Cammi, 
 J. W. Ochterski, R. L. Martin, K. Morokuma, O. Farkas, 
 J. B. Foresman, and D. J. Fox, Gaussian, Inc., Wallingford CT, 2016.
 
 ******************************************
 Gaussian 16:  ES64L-G16RevA.03 25-Dec-2016
                12-Oct-2023 
 ******************************************
 %nprocshared=4
 Will use up to    4 processors via shared memory.
 %mem=4GB
 ------------------
 # ub3lyp/6-31+g(d)
 ------------------
 1/38=1,172=1/1;
 2/12=2,17=6,18=5,40=1/2;
 3/5=1,6=6,7=11,11=2,25=1,30=1,74=-5,116=2/1,2,3;
 4//1;
 5/5=2,38=5/2;
 6/7=2,8=2,9=2,10=2,28=1/1;
 99/5=1,9=1/99;
 -----------------------
 tmpdir/M3_conf_0_15.gjf
 -----------------------
 Symbolic Z-matrix:
 Charge =  0 Multiplicity = 1
 C                     0.        0.        0. 
 C                     1.5168    0.        0. 
 H                     1.96917   0.        0.99401 
 C                    -0.55888  -0.07159  -1.28456 
 C                    -0.82152   0.07629   1.1133 
 C                    -1.93633  -0.04933  -1.45223 
 C                    -2.20836   0.0812    0.94603 
 H                    -0.38879   0.13333   2.10893 
 C                    -2.76188   0.01969  -0.32905 
 H                    -2.36675  -0.09316  -2.44953 
 H                    -2.85607   0.13511   1.81607 
 H                    -3.84096   0.02487  -0.4522 
 H                     1.86378   0.84245  -0.6284 
 H                     1.85928  -0.85329  -0.61451 
 H                     0.20176  -0.09111  -2.0842 
 
                          Input orientation:                          
 ---------------------------------------------------------------------
 Center     Atomic      Atomic             Coordinates (Angstroms)
 Number     Number       Type             X           Y           Z
 ---------------------------------------------------------------------
      1          6           0        0.000000    0.000000    0.000000
      2          6           0        1.516800    0.000000    0.000000
      3          1           0        1.969170    0.000000    0.994010
      4          6           0       -0.558880   -0.071590   -1.284560
      5          6           0       -0.821520    0.076290    1.113300
      6          6           0       -1.936330   -0.049330   -1.452230
      7          6           0       -2.208360    0.081200    0.946030
      8          1           0       -0.388790    0.133330    2.108930
      9          6           0       -2.761880    0.019690   -0.329050
     10          1           0       -2.366750   -0.093160   -2.449530
     11          1           0       -2.856070    0.135110    1.816070
     12          1           0       -3.840960    0.024870   -0.452200
     13          1           0        1.863780    0.842450   -0.628400
     14          1           0        1.859280   -0.853290   -0.614510
     15          1           0        0.201760   -0.091110   -2.084200
 ---------------------------------------------------------------------
                    Distance matrix (angstroms):
                    1          2          3          4          5
     1  C    0.000000
     2  C    1.516800   0.000000
     3  H    2.205830   1.092106   0.000000
     4  C    1.402700   2.442062   3.404121   0.000000
     5  C    1.385696   2.590945   2.794280   2.416729   0.000000
     6  C    2.420905   3.746400   4.608628   1.387796   2.800094
     7  C    2.403834   3.844266   4.178595   2.778428   1.396900
     8  H    2.148609   2.845459   2.611666   3.403924   1.087101
     9  C    2.781482   4.291359   4.912607   2.403027   2.418383
    10  H    3.407401   4.592476   5.537766   2.150817   3.887185
    11  H    3.387256   4.736914   4.896629   3.864416   2.153309
    12  H    3.867567   5.376867   5.987466   3.387355   3.401537
    13  H    2.139693   1.106799   1.831132   2.671198   3.291103
    14  H    2.136036   1.105902   1.824148   2.628216   3.322068
    15  H    2.095924   2.466074   3.550692   1.103802   3.361418
                    6          7          8          9         10
     6  C    0.000000
     7  C    2.417166   0.000000
     8  H    3.887172   2.160067   0.000000
     9  C    1.395647   1.391401   3.404147   0.000000
    10  H    1.087102   3.403721   4.974252   2.159930   0.000000
    11  H    3.400254   1.086004   2.484601   2.150287   4.299638
    12  H    2.152483   2.150256   4.299840   1.086097   2.485267
    13  H    3.989336   4.431778   3.615231   4.707789   4.699922
    14  H    3.969229   4.455811   3.666656   4.711550   4.669521
    15  H    2.229924   3.875650   4.240455   3.446156   2.594362
                   11         12         13         14         15
    11  H    0.000000
    12  H    2.475320   0.000000
    13  H    5.362159   5.765721   0.000000
    14  H    5.396219   5.769770   1.695803   0.000000
    15  H    4.961210   4.361245   2.398583   2.342708   0.000000
 Stoichiometry    C7H8
 Framework group  C1[X(C7H8)]
 Deg. of freedom    39
 Full point group                 C1      NOp   1
 Largest Abelian subgroup         C1      NOp   1
 Largest concise Abelian subgroup C1      NOp   1
                         Standard orientation:                         
 ---------------------------------------------------------------------
 Center     Atomic      Atomic             Coordinates (Angstroms)
 Number     Number       Type             X           Y           Z
 ---------------------------------------------------------------------
      1          6           0       -0.889374    0.106555   -0.008511
      2          6           0       -2.404587    0.038623    0.005614
      3          1           0       -2.901442    1.009867   -0.044528
      4          6           0       -0.273469   -1.153677   -0.014952
      5          6           0       -0.118547    1.258040   -0.000866
      6          6           0        1.110275   -1.258009    0.003615
      7          6           0        1.274441    1.153573    0.000269
      8          1           0       -0.595466    2.234920    0.005673
      9          6           0        1.884632   -0.096888    0.003423
     10          1           0        1.585053   -2.235930    0.010379
     11          1           0        1.882490    2.053396    0.000488
     12          1           0        2.968188   -0.171114    0.005281
     13          1           0       -2.717019   -0.557359    0.884361
     14          1           0       -2.724750   -0.636646   -0.809570
     15          1           0       -0.997279   -1.986442    0.016367
 ---------------------------------------------------------------------
 Rotational constants (GHZ):           5.5102319           2.5533689           1.7625470
 Standard basis: 6-31+G(d) (6D, 7F)
 There are   149 symmetry adapted cartesian basis functions of A   symmetry.
 There are   149 symmetry adapted basis functions of A   symmetry.
   149 basis functions,   256 primitive gaussians,   149 cartesian basis functions
    25 alpha electrons       25 beta electrons
       nuclear repulsion energy       269.5273171185 Hartrees.
 NAtoms=   15 NActive=   15 NUniq=   15 SFac= 1.00D+00 NAtFMM=   60 NAOKFM=F Big=F
 Integral buffers will be    131072 words long.
 Raffenetti 2 integral format.
 Two-electron integral symmetry is turned on.
 One-electron integrals computed using PRISM.
 NBasis=   149 RedAO= T EigKep=  5.00D-06  NBF=   149
 NBsUse=   149 1.00D-06 EigRej= -1.00D+00 NBFU=   149
 ExpMin= 4.38D-02 ExpMax= 3.05D+03 ExpMxC= 4.57D+02 IAcc=3 IRadAn=         5 AccDes= 0.00D+00
 Harris functional with IExCor=  402 and IRadAn=       5 diagonalized for initial guess.
 HarFok:  IExCor=  402 AccDes= 0.00D+00 IRadAn=         5 IDoV= 1 UseB2=F ITyADJ=14
 ICtDFT=  3500011 ScaDFX=  1.000000  1.000000  1.000000  1.000000
 FoFCou: FMM=F IPFlag=           0 FMFlag=      100000 FMFlg1=           0
         NFxFlg=           0 DoJE=T BraDBF=F KetDBF=T FulRan=T
         wScrn=  0.000000 ICntrl=       500 IOpCl=  0 I1Cent=   200000004 NGrid=           0
         NMat0=    1 NMatS0=      1 NMatT0=    0 NMatD0=    1 NMtDS0=    0 NMtDT0=    0
 Petite list used in FoFCou.
 Initial guess <Sx>= 0.0000 <Sy>= 0.0000 <Sz>= 0.0000 <S**2>= 0.0000 S= 0.0000
 Keep R1 and R2 ints in memory in canonical form, NReq=128793723.
 Requested convergence on RMS density matrix=1.00D-08 within 128 cycles.
 Requested convergence on MAX density matrix=1.00D-06.
 Requested convergence on             energy=1.00D-06.
 No special actions if energy rises.
 SCF Done:  E(UB3LYP) =  -271.569900818     A.U. after   12 cycles
            NFock= 12  Conv=0.70D-08     -V/T= 2.0100
 <Sx>= 0.0000 <Sy>= 0.0000 <Sz>= 0.0000 <S**2>=-0.0000 S=-0.0000
 <L.S>= 0.000000000000E+00
 Annihilation of the first spin contaminant:
 S**2 before annihilation    -0.0000,   after    -0.0000

 **********************************************************************

            Population analysis using the SCF density.

 **********************************************************************

 Orbital symmetries:
 Alpha Orbitals:
       Occupied  (A) (A) (A) (A) (A) (A) (A) (A) (A) (A) (A) (A)
                 (A) (A) (A) (A) (A) (A) (A) (A) (A) (A) (A) (A)
                 (A)
       Virtual   (A) (A) (A) (A) (A) (A) (A) (A) (A) (A) (A) (A)
                 (A) (A) (A) (A) (A) (A) (A) (A) (A) (A) (A) (A)
                 (A) (A) (A) (A) (A) (A) (A) (A) (A) (A) (A) (A)
                 (A) (A) (A) (A) (A) (A) (A) (A) (A) (A) (A) (A)
                 (A) (A) (A) (A) (A) (A) (A) (A) (A) (A) (A) (A)
                 (A) (A) (A) (A) (A) (A) (A) (A) (A) (A) (A) (A)
                 (A) (A) (A) (A) (A) (A) (A) (A) (A) (A) (A) (A)
                 (A) (A) (A) (A) (A) (A) (A) (A) (A) (A) (A) (A)
                 (A) (A) (A) (A) (A) (A) (A) (A) (A) (A) (A) (A)
                 (A) (A) (A) (A) (A) (A) (A) (A) (A) (A) (A) (A)
                 (A) (A) (A) (A)
 Beta  Orbitals:
       Occupied  (A) (A) (A) (A) (A) (A) (A) (A) (A) (A) (A) (A)
                 (A) (A) (A) (A) (A) (A) (A) (A) (A) (A) (A) (A)
                 (A)
       Virtual   (A) (A) (A) (A) (A) (A) (A) (A) (A) (A) (A) (A)
                 (A) (A) (A) (A) (A) (A) (A) (A) (A) (A) (A) (A)
                 (A) (A) (A) (A) (A) (A) (A) (A) (A) (A) (A) (A)
                 (A) (A) (A) (A) (A) (A) (A) (A) (A) (A) (A) (A)
                 (A) (A) (A) (A) (A) (A) (A) (A) (A) (A) (A) (A)
                 (A) (A) (A) (A) (A) (A) (A) (A) (A) (A) (A) (A)
                 (A) (A) (A) (A) (A) (A) (A) (A) (A) (A) (A) (A)
                 (A) (A) (A) (A) (A) (A) (A) (A) (A) (A) (A) (A)
                 (A) (A) (A) (A) (A) (A) (A) (A) (A) (A) (A) (A)
                 (A) (A) (A) (A) (A) (A) (A) (A) (A) (A) (A) (A)
                 (A) (A) (A) (A)
 The electronic state is 1-A.
 Alpha  occ. eigenvalues --  -10.19998 -10.19535 -10.19421 -10.19167 -10.19161
 Alpha  occ. eigenvalues --  -10.19096 -10.19010  -0.86084  -0.77556  -0.74838
 Alpha  occ. eigenvalues --   -0.68644  -0.61044  -0.58407  -0.51398  -0.46586
 Alpha  occ. eigenvalues --   -0.45569  -0.42493  -0.41538  -0.40749  -0.39863
 Alpha  occ. eigenvalues --   -0.35504  -0.34722  -0.33874  -0.25585  -0.24311
 Alpha virt. eigenvalues --   -0.01517  -0.00665   0.00560   0.01897   0.02500
 Alpha virt. eigenvalues --    0.04228   0.04673   0.05174   0.06555   0.06928
 Alpha virt. eigenvalues --    0.07759   0.08225   0.08935   0.10347   0.12194
 Alpha virt. eigenvalues --    0.12730   0.13002   0.13444   0.14094   0.15551
 Alpha virt. eigenvalues --    0.16167   0.16703   0.17298   0.18092   0.19478
 Alpha virt. eigenvalues --    0.19713   0.21383   0.21712   0.22209   0.22717
 Alpha virt. eigenvalues --    0.23397   0.24238   0.24955   0.25667   0.26750
 Alpha virt. eigenvalues --    0.28098   0.28366   0.29980   0.31678   0.33847
 Alpha virt. eigenvalues --    0.34824   0.35669   0.36984   0.39706   0.56068
 Alpha virt. eigenvalues --    0.60211   0.65112   0.66869   0.67421   0.69077
 Alpha virt. eigenvalues --    0.70942   0.71882   0.72080   0.73666   0.74157
 Alpha virt. eigenvalues --    0.74725   0.77381   0.77562   0.78259   0.81864
 Alpha virt. eigenvalues --    0.82232   0.85847   0.89643   0.92451   0.92897
 Alpha virt. eigenvalues --    0.94039   0.96499   1.00936   1.02196   1.04215
 Alpha virt. eigenvalues --    1.08809   1.09239   1.13603   1.14907   1.17127
 Alpha virt. eigenvalues --    1.19256   1.22142   1.25540   1.31514   1.36536
 Alpha virt. eigenvalues --    1.41844   1.43520   1.45708   1.48264   1.49454
 Alpha virt. eigenvalues --    1.50143   1.51466   1.83377   1.84348   1.85708
 Alpha virt. eigenvalues --    1.90629   1.91497   1.92587   1.96021   1.99610
 Alpha virt. eigenvalues --    2.10676   2.12176   2.14663   2.15711   2.18480
 Alpha virt. eigenvalues --    2.19855   2.25202   2.30908   2.32748   2.34490
 Alpha virt. eigenvalues --    2.37024   2.40368   2.59393   2.61719   2.66159
 Alpha virt. eigenvalues --    2.74194   2.74973   2.75411   2.78685   2.90994
 Alpha virt. eigenvalues --    3.07159   3.41340   4.22878   4.24611   4.25942
 Alpha virt. eigenvalues --    4.31760   4.38448   4.45040   4.71539
  Beta  occ. eigenvalues --  -10.19998 -10.19535 -10.19421 -10.19167 -10.19161
  Beta  occ. eigenvalues --  -10.19096 -10.19010  -0.86084  -0.77556  -0.74838
  Beta  occ. eigenvalues --   -0.68644  -0.61044  -0.58407  -0.51398  -0.46586
  Beta  occ. eigenvalues --   -0.45569  -0.42493  -0.41538  -0.40749  -0.39863
  Beta  occ. eigenvalues --   -0.35504  -0.34722  -0.33874  -0.25585  -0.24311
  Beta virt. eigenvalues --   -0.01517  -0.00665   0.00560   0.01897   0.02500
  Beta virt. eigenvalues --    0.04228   0.04673   0.05174   0.06555   0.06928
  Beta virt. eigenvalues --    0.07759   0.08225   0.08935   0.10347   0.12194
  Beta virt. eigenvalues --    0.12730   0.13002   0.13444   0.14094   0.15551
  Beta virt. eigenvalues --    0.16167   0.16703   0.17298   0.18092   0.19478
  Beta virt. eigenvalues --    0.19713   0.21383   0.21712   0.22209   0.22717
  Beta virt. eigenvalues --    0.23397   0.24238   0.24955   0.25667   0.26750
  Beta virt. eigenvalues --    0.28098   0.28366   0.29980   0.31678   0.33847
  Beta virt. eigenvalues --    0.34824   0.35669   0.36984   0.39706   0.56068
  Beta virt. eigenvalues --    0.60211   0.65112   0.66869   0.67421   0.69077
  Beta virt. eigenvalues --    0.70942   0.71882   0.72080   0.73666   0.74157
  Beta virt. eigenvalues --    0.74725   0.77381   0.77562   0.78259   0.81864
  Beta virt. eigenvalues --    0.82232   0.85847   0.89643   0.92451   0.92897
  Beta virt. eigenvalues --    0.94039   0.96499   1.00936   1.02196   1.04215
  Beta virt. eigenvalues --    1.08809   1.09239   1.13603   1.14907   1.17127
  Beta virt. eigenvalues --    1.19256   1.22142   1.25540   1.31514   1.36536
  Beta virt. eigenvalues --    1.41844   1.43520   1.45708   1.48264   1.49454
  Beta virt. eigenvalues --    1.50143   1.51466   1.83377   1.84348   1.85708
  Beta virt. eigenvalues --    1.90629   1.91497   1.92587   1.96021   1.99610
  Beta virt. eigenvalues --    2.10676   2.12176   2.14663   2.15711   2.18480
  Beta virt. eigenvalues --    2.19855   2.25202   2.30908   2.32748   2.34490
  Beta virt. eigenvalues --    2.37024   2.40368   2.59393   2.61719   2.66159
  Beta virt. eigenvalues --    2.74194   2.74973   2.75411   2.78685   2.90994
  Beta virt. eigenvalues --    3.07159   3.41340   4.22878   4.24611   4.25942
  Beta virt. eigenvalues --    4.31760   4.38448   4.45040   4.71539
          Condensed to atoms (all electrons):
               1          2          3          4          5          6
     1  C    7.860410  -0.584384  -0.123025  -0.519453  -0.385454  -0.016742
     2  C   -0.584384   6.102475   0.449505  -0.287011   0.575361  -0.115354
     3  H   -0.123025   0.449505   0.491352  -0.014608   0.035436  -0.007600
     4  C   -0.519453  -0.287011  -0.014608   9.079520  -2.744436  -0.042349
     5  C   -0.385454   0.575361   0.035436  -2.744436   8.345225   0.179689
     6  C   -0.016742  -0.115354  -0.007600  -0.042349   0.179689   5.644651
     7  C   -0.191105  -0.028709   0.002012  -0.113361   0.524056  -0.171982
     8  H    0.027925  -0.008681   0.003242   0.030946   0.222574  -0.012336
     9  C   -0.386218   0.041095   0.001952   0.273970  -0.103103   0.364928
    10  H    0.019240  -0.000283   0.000002  -0.013137  -0.007403   0.288153
    11  H    0.014716  -0.000050  -0.000001  -0.002890  -0.013183   0.003634
    12  H    0.002009   0.000540  -0.000000   0.004996   0.006280  -0.004960
    13  H   -0.104113   0.418247  -0.020460   0.008079   0.005716  -0.004946
    14  H   -0.121451   0.422889  -0.021032   0.023693  -0.000179  -0.000091
    15  H   -0.013236   0.003960   0.000384   0.226254   0.058437  -0.006335
               7          8          9         10         11         12
     1  C   -0.191105   0.027925  -0.386218   0.019240   0.014716   0.002009
     2  C   -0.028709  -0.008681   0.041095  -0.000283  -0.000050   0.000540
     3  H    0.002012   0.003242   0.001952   0.000002  -0.000001  -0.000000
     4  C   -0.113361   0.030946   0.273970  -0.013137  -0.002890   0.004996
     5  C    0.524056   0.222574  -0.103103  -0.007403  -0.013183   0.006280
     6  C   -0.171982  -0.012336   0.364928   0.288153   0.003634  -0.004960
     7  C    5.326242   0.003533   0.541822   0.009743   0.281466   0.011548
     8  H    0.003533   0.552832   0.011902   0.000019  -0.004763  -0.000158
     9  C    0.541822   0.011902   5.135874  -0.006447   0.007405   0.271810
    10  H    0.009743   0.000019  -0.006447   0.541429  -0.000164  -0.005061
    11  H    0.281466  -0.004763   0.007405  -0.000164   0.542363  -0.005172
    12  H    0.011548  -0.000158   0.271810  -0.005061  -0.005172   0.543311
    13  H   -0.003773   0.000048   0.004036  -0.000004   0.000002   0.000000
    14  H   -0.005368   0.000035   0.004361  -0.000004   0.000002   0.000000
    15  H   -0.012613  -0.000188   0.013276  -0.003899   0.000018  -0.000139
              13         14         15
     1  C   -0.104113  -0.121451  -0.013236
     2  C    0.418247   0.422889   0.003960
     3  H   -0.020460  -0.021032   0.000384
     4  C    0.008079   0.023693   0.226254
     5  C    0.005716  -0.000179   0.058437
     6  C   -0.004946  -0.000091  -0.006335
     7  C   -0.003773  -0.005368  -0.012613
     8  H    0.000048   0.000035  -0.000188
     9  C    0.004036   0.004361   0.013276
    10  H   -0.000004  -0.000004  -0.003899
    11  H    0.000002   0.000002   0.000018
    12  H    0.000000   0.000000  -0.000139
    13  H    0.514629  -0.043862   0.001451
    14  H   -0.043862   0.516916   0.001528
    15  H    0.001451   0.001528   0.557465
          Atomic-Atomic Spin Densities.
               1          2          3          4          5          6
     1  C   -0.000000  -0.000000  -0.000000   0.000000  -0.000000   0.000000
     2  C   -0.000000   0.000000   0.000000   0.000000  -0.000000  -0.000000
     3  H   -0.000000   0.000000  -0.000000   0.000000  -0.000000  -0.000000
     4  C    0.000000   0.000000   0.000000  -0.000000   0.000000  -0.000000
     5  C   -0.000000  -0.000000  -0.000000   0.000000  -0.000000   0.000000
     6  C    0.000000  -0.000000  -0.000000  -0.000000   0.000000  -0.000000
     7  C    0.000000  -0.000000  -0.000000   0.000000  -0.000000  -0.000000
     8  H   -0.000000   0.000000   0.000000   0.000000   0.000000  -0.000000
     9  C    0.000000   0.000000   0.000000  -0.000000   0.000000   0.000000
    10  H    0.000000   0.000000   0.000000   0.000000   0.000000  -0.000000
    11  H    0.000000   0.000000   0.000000  -0.000000  -0.000000   0.000000
    12  H   -0.000000   0.000000  -0.000000   0.000000   0.000000  -0.000000
    13  H    0.000000   0.000000   0.000000  -0.000000   0.000000  -0.000000
    14  H   -0.000000   0.000000   0.000000   0.000000  -0.000000   0.000000
    15  H    0.000000   0.000000   0.000000  -0.000000  -0.000000   0.000000
               7          8          9         10         11         12
     1  C    0.000000  -0.000000   0.000000   0.000000   0.000000  -0.000000
     2  C   -0.000000   0.000000   0.000000   0.000000   0.000000   0.000000
     3  H   -0.000000   0.000000   0.000000   0.000000   0.000000  -0.000000
     4  C    0.000000   0.000000  -0.000000   0.000000  -0.000000   0.000000
     5  C   -0.000000   0.000000   0.000000   0.000000  -0.000000   0.000000
     6  C   -0.000000  -0.000000   0.000000  -0.000000   0.000000  -0.000000
     7  C   -0.000000  -0.000000  -0.000000   0.000000   0.000000   0.000000
     8  H   -0.000000  -0.000000   0.000000   0.000000   0.000000  -0.000000
     9  C   -0.000000   0.000000  -0.000000   0.000000  -0.000000   0.000000
    10  H    0.000000   0.000000   0.000000   0.000000   0.000000   0.000000
    11  H    0.000000   0.000000  -0.000000   0.000000   0.000000   0.000000
    12  H    0.000000  -0.000000   0.000000   0.000000   0.000000  -0.000000
    13  H    0.000000  -0.000000  -0.000000  -0.000000  -0.000000   0.000000
    14  H    0.000000   0.000000  -0.000000  -0.000000   0.000000   0.000000
    15  H    0.000000  -0.000000  -0.000000  -0.000000  -0.000000   0.000000
              13         14         15
     1  C    0.000000  -0.000000   0.000000
     2  C    0.000000   0.000000   0.000000
     3  H    0.000000   0.000000   0.000000
     4  C   -0.000000   0.000000  -0.000000
     5  C    0.000000  -0.000000  -0.000000
     6  C   -0.000000   0.000000   0.000000
     7  C    0.000000   0.000000   0.000000
     8  H   -0.000000   0.000000  -0.000000
     9  C   -0.000000  -0.000000  -0.000000
    10  H   -0.000000  -0.000000  -0.000000
    11  H   -0.000000   0.000000  -0.000000
    12  H    0.000000   0.000000   0.000000
    13  H   -0.000000  -0.000000   0.000000
    14  H   -0.000000   0.000000   0.000000
    15  H    0.000000   0.000000   0.000000
 Mulliken charges and spin densities:
               1          2
     1  C    0.520878  -0.000000
     2  C   -0.989601   0.000000
     3  H    0.202840   0.000000
     4  C    0.089786   0.000000
     5  C   -0.699017   0.000000
     6  C   -0.098360  -0.000000
     7  C   -0.173512  -0.000000
     8  H    0.173071  -0.000000
     9  C   -0.176662   0.000000
    10  H    0.177817   0.000000
    11  H    0.176615   0.000000
    12  H    0.174996  -0.000000
    13  H    0.224948  -0.000000
    14  H    0.222561   0.000000
    15  H    0.173639   0.000000
 Sum of Mulliken charges =  -0.00000  -0.00000
 Mulliken charges and spin densities with hydrogens summed into heavy atoms:
               1          2
     1  C    0.520878  -0.000000
     2  C   -0.339251   0.000000
     4  C    0.263425   0.000000
     5  C   -0.525946   0.000000
     6  C    0.079457  -0.000000
     7  C    0.003103  -0.000000
     9  C   -0.001666   0.000000
 Electronic spatial extent (au):  <R**2>=            715.4414
 Charge=             -0.0000 electrons
 Dipole moment (field-independent basis, Debye):
    X=             -0.4073    Y=             -0.0699    Z=              0.0408  Tot=              0.4153
 Quadrupole moment (field-independent basis, Debye-Ang):
   XX=            -39.0087   YY=            -39.1416   ZZ=            -46.8349
   XY=              0.3015   XZ=             -0.0241   YZ=             -0.0880
 Traceless Quadrupole moment (field-independent basis, Debye-Ang):
   XX=              2.6530   YY=              2.5202   ZZ=             -5.1732
   XY=              0.3015   XZ=             -0.0241   YZ=             -0.0880
 Octapole moment (field-independent basis, Debye-Ang**2):
  XXX=              5.0433  YYY=              1.3715  ZZZ=              0.1730  XYY=              0.2123
  XXY=             -0.7177  XXZ=              0.0419  XZZ=             -3.3103  YZZ=             -0.5903
  YYZ=              0.1120  XYZ=              0.1071
 Hexadecapole moment (field-independent basis, Debye-Ang**3):
 XXXX=           -621.6504 YYYY=           -299.3438 ZZZZ=            -65.3543 XXXY=              0.3438
 XXXZ=              0.1872 YYYX=             -1.8101 YYYZ=             -0.3090 ZZZX=             -0.3148
 ZZZY=             -0.1724 XXYY=           -146.5730 XXZZ=           -124.7085 YYZZ=            -70.8234
 XXYZ=             -0.4186 YYXZ=              0.1604 ZZXY=              1.6267
 N-N= 2.695273171185D+02 E-N=-1.166781114959D+03  KE= 2.688836796312D+02
                          Isotropic Fermi Contact Couplings
        Atom                 a.u.       MegaHertz       Gauss      10(-4) cm-1
     1  C(13)             -0.00000      -0.00000      -0.00000      -0.00000
     2  C(13)              0.00000       0.00000       0.00000       0.00000
     3  H(1)               0.00000       0.00000       0.00000       0.00000
     4  C(13)             -0.00000      -0.00000      -0.00000      -0.00000
     5  C(13)              0.00000       0.00000       0.00000       0.00000
     6  C(13)              0.00000       0.00000       0.00000       0.00000
     7  C(13)              0.00000       0.00000       0.00000       0.00000
     8  H(1)              -0.00000      -0.00000      -0.00000      -0.00000
     9  C(13)             -0.00000      -0.00000      -0.00000      -0.00000
    10  H(1)               0.00000       0.00000       0.00000       0.00000
    11  H(1)               0.00000       0.00000       0.00000       0.00000
    12  H(1)              -0.00000      -0.00000      -0.00000      -0.00000
    13  H(1)              -0.00000      -0.00000      -0.00000      -0.00000
    14  H(1)               0.00000       0.00000       0.00000       0.00000
    15  H(1)               0.00000       0.00000       0.00000       0.00000
 --------------------------------------------------------
       Center         ----  Spin Dipole Couplings  ----
                      3XX-RR        3YY-RR        3ZZ-RR
 --------------------------------------------------------
     1   Atom        0.000000     -0.000000      0.000000
     2   Atom       -0.000000      0.000000      0.000000
     3   Atom        0.000000     -0.000000      0.000000
     4   Atom       -0.000000     -0.000000      0.000000
     5   Atom       -0.000000      0.000000      0.000000
     6   Atom        0.000000     -0.000000      0.000000
     7   Atom       -0.000000      0.000000     -0.000000
     8   Atom       -0.000000      0.000000     -0.000000
     9   Atom        0.000000     -0.000000      0.000000
    10   Atom        0.000000     -0.000000      0.000000
    11   Atom       -0.000000     -0.000000      0.000000
    12   Atom        0.000000     -0.000000      0.000000
    13   Atom        0.000000      0.000000     -0.000000
    14   Atom        0.000000     -0.000000     -0.000000
    15   Atom       -0.000000     -0.000000      0.000000
 --------------------------------------------------------
                        XY            XZ            YZ
 --------------------------------------------------------
     1   Atom        0.000000     -0.000000     -0.000000
     2   Atom        0.000000      0.000000      0.000000
     3   Atom        0.000000      0.000000     -0.000000
     4   Atom       -0.000000      0.000000     -0.000000
     5   Atom       -0.000000     -0.000000      0.000000
     6   Atom        0.000000      0.000000     -0.000000
     7   Atom        0.000000     -0.000000     -0.000000
     8   Atom       -0.000000      0.000000     -0.000000
     9   Atom       -0.000000      0.000000      0.000000
    10   Atom       -0.000000      0.000000     -0.000000
    11   Atom       -0.000000      0.000000      0.000000
    12   Atom        0.000000     -0.000000      0.000000
    13   Atom        0.000000      0.000000      0.000000
    14   Atom       -0.000000     -0.000000     -0.000000
    15   Atom       -0.000000      0.000000      0.000000
 --------------------------------------------------------


 ---------------------------------------------------------------------------------
              Anisotropic Spin Dipole Couplings in Principal Axis System
 ---------------------------------------------------------------------------------

       Atom             a.u.   MegaHertz   Gauss  10(-4) cm-1        Axes

              Baa    -0.0000    -0.000    -0.000    -0.000 -0.4942  0.8578 -0.1414
     1 C(13)  Bbb    -0.0000    -0.000    -0.000    -0.000  0.5340  0.4279  0.7292
              Bcc     0.0000     0.000     0.000     0.000  0.6860  0.2848 -0.6696
 
              Baa    -0.0000    -0.000    -0.000    -0.000  0.9321 -0.3601 -0.0386
     2 C(13)  Bbb    -0.0000    -0.000    -0.000    -0.000  0.2613  0.7425 -0.6168
              Bcc     0.0000     0.000     0.000     0.000  0.2507  0.5648  0.7862
 
              Baa    -0.0000    -0.000    -0.000    -0.000 -0.2035  0.9588  0.1984
     3 H(1)   Bbb     0.0000     0.000     0.000     0.000  0.8404  0.2750 -0.4671
              Bcc     0.0000     0.000     0.000     0.000  0.5024 -0.0717  0.8617
 
              Baa    -0.0000    -0.000    -0.000    -0.000  0.7324  0.6789 -0.0526
     4 C(13)  Bbb     0.0000     0.000     0.000     0.000 -0.0544  0.1353  0.9893
              Bcc     0.0000     0.000     0.000     0.000 -0.6787  0.7217 -0.1360
 
              Baa    -0.0000    -0.000    -0.000    -0.000  0.9156  0.3853  0.1148
     5 C(13)  Bbb     0.0000     0.000     0.000     0.000  0.1724 -0.6341  0.7538
              Bcc     0.0000     0.000     0.000     0.000 -0.3632  0.6704  0.6470
 
              Baa    -0.0000    -0.000    -0.000    -0.000 -0.5623  0.8178  0.1228
     6 C(13)  Bbb     0.0000     0.000     0.000     0.000 -0.3192 -0.3516  0.8801
              Bcc     0.0000     0.000     0.000     0.000  0.7629  0.4556  0.4587
 
              Baa    -0.0000    -0.000    -0.000    -0.000  0.7369  0.0722  0.6722
     7 C(13)  Bbb    -0.0000    -0.000    -0.000    -0.000 -0.6515  0.3413  0.6776
              Bcc     0.0000     0.000     0.000     0.000  0.1805  0.9372 -0.2985
 
              Baa    -0.0000    -0.000    -0.000    -0.000  0.9027  0.4289  0.0356
     8 H(1)   Bbb    -0.0000    -0.000    -0.000    -0.000 -0.1835  0.3087  0.9333
              Bcc     0.0000     0.000     0.000     0.000 -0.3893  0.8490 -0.3573
 
              Baa    -0.0000    -0.000    -0.000    -0.000  0.4537  0.8878 -0.0776
     9 C(13)  Bbb     0.0000     0.000     0.000     0.000  0.0972  0.0372  0.9946
              Bcc     0.0000     0.000     0.000     0.000  0.8858 -0.4588 -0.0694
 
              Baa    -0.0000    -0.000    -0.000    -0.000  0.0150  0.9842  0.1765
    10 H(1)   Bbb     0.0000     0.000     0.000     0.000 -0.1054 -0.1739  0.9791
              Bcc     0.0000     0.000     0.000     0.000  0.9943 -0.0333  0.1011
 
              Baa    -0.0000    -0.000    -0.000    -0.000  0.5816  0.8085 -0.0902
    11 H(1)   Bbb     0.0000     0.000     0.000     0.000  0.8134 -0.5760  0.0816
              Bcc     0.0000     0.000     0.000     0.000 -0.0140  0.1209  0.9926
 
              Baa    -0.0000    -0.000    -0.000    -0.000 -0.5840  0.8047 -0.1071
    12 H(1)   Bbb     0.0000     0.000     0.000     0.000  0.0924  0.1969  0.9761
              Bcc     0.0000     0.000     0.000     0.000  0.8065  0.5601 -0.1893
 
              Baa    -0.0000    -0.000    -0.000    -0.000  0.1150 -0.4582  0.8814
    13 H(1)   Bbb     0.0000     0.000     0.000     0.000  0.8897 -0.3471 -0.2966
              Bcc     0.0000     0.000     0.000     0.000  0.4418  0.8183  0.3677
 
              Baa    -0.0000    -0.000    -0.000    -0.000  0.1722  0.7501  0.6385
    14 H(1)   Bbb     0.0000     0.000     0.000     0.000  0.9647 -0.2594  0.0446
              Bcc     0.0000     0.000     0.000     0.000 -0.1991 -0.6083  0.7683
 
              Baa    -0.0000    -0.000    -0.000    -0.000  0.5999  0.7312 -0.3248
    15 H(1)   Bbb     0.0000     0.000     0.000     0.000  0.7531 -0.6531 -0.0795
              Bcc     0.0000     0.000     0.000     0.000  0.2702  0.1969  0.9424
 

 ---------------------------------------------------------------------------------

 1\1\GINC-NODE31\SP\UB3LYP\6-31+G(d)\C7H8\YANZ\12-Oct-2023\0\\# ub3lyp/
 6-31+g(d)\\tmpdir/M3_conf_0_15.gjf\\0,1\C,0,0.,0.,0.\C,0,1.5168,0.,0.\
 H,0,1.96917,0.,0.99401\C,0,-0.55888,-0.07159,-1.28456\C,0,-0.82152,0.0
 7629,1.1133\C,0,-1.93633,-0.04933,-1.45223\C,0,-2.20836,0.0812,0.94603
 \H,0,-0.38879,0.13333,2.10893\C,0,-2.76188,0.01969,-0.32905\H,0,-2.366
 75,-0.09316,-2.44953\H,0,-2.85607,0.13511,1.81607\H,0,-3.84096,0.02487
 ,-0.4522\H,0,1.86378,0.84245,-0.6284\H,0,1.85928,-0.85329,-0.61451\H,0
 ,0.20176,-0.09111,-2.0842\\Version=ES64L-G16RevA.03\State=1-A\HF=-271.
 5699008\S2=0.\S2-1=0.\S2A=0.\RMSD=6.986e-09\Dipole=0.1614655,0.0134219
 ,-0.021058\Quadrupole=1.9921904,-3.835804,1.8436136,-0.0455219,-0.2172
 347,0.2490837\PG=C01 [X(C7H8)]\\@


 IF OTHER PEOPLE ARE GOING TO TALK, CONVERSATION IS SIMPLY IMPOSSIBLE.

                                               -- WHISTLER'S PRINCIPLE
 Job cpu time:       0 days  0 hours  2 minutes 43.7 seconds.
 Elapsed time:       0 days  0 hours  0 minutes 43.5 seconds.
 File lengths (MBytes):  RWF=     20 Int=      0 D2E=      0 Chk=      3 Scr=      1
 Normal termination of Gaussian 16 at Thu Oct 12 15:29:41 2023.
