 Entering Gaussian System, Link 0=g16
 Initial command:
 /share/apps/gaussian/g16/l1.exe "/tmp/58287.mgr/Gau-21921.inp" -scrdir="/tmp/58287.mgr/"
 Entering Link 1 = /share/apps/gaussian/g16/l1.exe PID=     21922.
  
 Copyright (c) 1988,1990,1992,1993,1995,1998,2003,2009,2016,
            Gaussian, Inc.  All Rights Reserved.
  
 This is part of the Gaussian(R) 16 program.  It is based on
 the Gaussian(R) 09 system (copyright 2009, Gaussian, Inc.),
 the Gaussian(R) 03 system (copyright 2003, Gaussian, Inc.),
 the Gaussian(R) 98 system (copyright 1998, Gaussian, Inc.),
 the Gaussian(R) 94 system (copyright 1995, Gaussian, Inc.),
 the Gaussian 92(TM) system (copyright 1992, Gaussian, Inc.),
 the Gaussian 90(TM) system (copyright 1990, Gaussian, Inc.),
 the Gaussian 88(TM) system (copyright 1988, Gaussian, Inc.),
 the Gaussian 86(TM) system (copyright 1986, Carnegie Mellon
 University), and the Gaussian 82(TM) system (copyright 1983,
 Carnegie Mellon University). Gaussian is a federally registered
 trademark of Gaussian, Inc.
  
 This software contains proprietary and confidential information,
 including trade secrets, belonging to Gaussian, Inc.
  
 This software is provided under written license and may be
 used, copied, transmitted, or stored only in accord with that
 written license.
  
 The following legend is applicable only to US Government
 contracts under FAR:
  
                    RESTRICTED RIGHTS LEGEND
  
 Use, reproduction and disclosure by the US Government is
 subject to restrictions as set forth in subparagraphs (a)
 and (c) of the Commercial Computer Software - Restricted
 Rights clause in FAR 52.227-19.
  
 Gaussian, Inc.
 340 Quinnipiac St., Bldg. 40, Wallingford CT 06492
  
  
 ---------------------------------------------------------------
 Warning -- This program may not be used in any manner that
 competes with the business of Gaussian, Inc. or will provide
 assistance to any competitor of Gaussian, Inc.  The licensee
 of this program is prohibited from giving any competitor of
 Gaussian, Inc. access to this program.  By using this program,
 the user acknowledges that Gaussian, Inc. is engaged in the
 business of creating and licensing software in the field of
 computational chemistry and represents and warrants to the
 licensee that it is not a competitor of Gaussian, Inc. and that
 it will not use this program in any manner prohibited above.
 ---------------------------------------------------------------
  

 Cite this work as:
 Gaussian 16, Revision A.03,
 M. J. Frisch, G. W. Trucks, H. B. Schlegel, G. E. Scuseria, 
 M. A. Robb, J. R. Cheeseman, G. Scalmani, V. Barone, 
 G. A. Petersson, H. Nakatsuji, X. Li, M. Caricato, A. V. Marenich, 
 J. Bloino, B. G. Janesko, R. Gomperts, B. Mennucci, H. P. Hratchian, 
 J. V. Ortiz, A. F. Izmaylov, J. L. Sonnenberg, D. Williams-Young, 
 F. Ding, F. Lipparini, F. Egidi, J. Goings, B. Peng, A. Petrone, 
 T. Henderson, D. Ranasinghe, V. G. Zakrzewski, J. Gao, N. Rega, 
 G. Zheng, W. Liang, M. Hada, M. Ehara, K. Toyota, R. Fukuda, 
 J. Hasegawa, M. Ishida, T. Nakajima, Y. Honda, O. Kitao, H. Nakai, 
 T. Vreven, K. Throssell, J. A. Montgomery, Jr., J. E. Peralta, 
 F. Ogliaro, M. J. Bearpark, J. J. Heyd, E. N. Brothers, K. N. Kudin, 
 V. N. Staroverov, T. A. Keith, R. Kobayashi, J. Normand, 
 K. Raghavachari, A. P. Rendell, J. C. Burant, S. S. Iyengar, 
 J. Tomasi, M. Cossi, J. M. Millam, M. Klene, C. Adamo, R. Cammi, 
 J. W. Ochterski, R. L. Martin, K. Morokuma, O. Farkas, 
 J. B. Foresman, and D. J. Fox, Gaussian, Inc., Wallingford CT, 2016.
 
 ******************************************
 Gaussian 16:  ES64L-G16RevA.03 25-Dec-2016
                12-Oct-2023 
 ******************************************
 %nprocshared=4
 Will use up to    4 processors via shared memory.
 %mem=4GB
 ------------------
 # ub3lyp/6-31+g(d)
 ------------------
 1/38=1,172=1/1;
 2/12=2,17=6,18=5,40=1/2;
 3/5=1,6=6,7=11,11=2,25=1,30=1,74=-5,116=2/1,2,3;
 4//1;
 5/5=2,38=5/2;
 6/7=2,8=2,9=2,10=2,28=1/1;
 99/5=1,9=1/99;
 ----------------------
 tmpdir/M3_conf_0_5.gjf
 ----------------------
 Symbolic Z-matrix:
 Charge =  0 Multiplicity = 2
 C                     0.        0.        0. 
 C                     1.5248    0.        0. 
 C                     1.93798   0.        1.47191 
 C                    -0.82802   0.98877  -0.51253 
 C                    -0.54673  -1.11256   0.6564 
 C                    -2.2122    0.85413  -0.3911 
 H                    -0.40127   1.8557   -1.01064 
 C                    -1.9207   -1.24062   0.78268 
 C                    -2.75562  -0.25382   0.25165 
 H                    -2.86665   1.6179   -0.80094 
 H                    -2.34472  -2.102     1.29261 
 H                    -3.83323  -0.35265   0.34319 
 H                     1.93787   0.86466  -0.52427 
 H                     1.86396  -0.96603  -0.40192 
 H                     1.70074  -0.94365   1.9357 
 H                     1.7603    0.92719   2.01755 
 H                     0.20992  -1.81012   1.03917 
 
                          Input orientation:                          
 ---------------------------------------------------------------------
 Center     Atomic      Atomic             Coordinates (Angstroms)
 Number     Number       Type             X           Y           Z
 ---------------------------------------------------------------------
      1          6           0        0.000000    0.000000    0.000000
      2          6           0        1.524800    0.000000    0.000000
      3          6           0        1.937980    0.000000    1.471910
      4          6           0       -0.828020    0.988770   -0.512530
      5          6           0       -0.546730   -1.112560    0.656400
      6          6           0       -2.212200    0.854130   -0.391100
      7          1           0       -0.401270    1.855700   -1.010640
      8          6           0       -1.920700   -1.240620    0.782680
      9          6           0       -2.755620   -0.253820    0.251650
     10          1           0       -2.866650    1.617900   -0.800940
     11          1           0       -2.344720   -2.102000    1.292610
     12          1           0       -3.833230   -0.352650    0.343190
     13          1           0        1.937870    0.864660   -0.524270
     14          1           0        1.863960   -0.966030   -0.401920
     15          1           0        1.700740   -0.943650    1.935700
     16          1           0        1.760300    0.927190    2.017550
     17          1           0        0.209920   -1.810120    1.039170
 ---------------------------------------------------------------------
                    Distance matrix (angstroms):
                    1          2          3          4          5
     1  C    0.000000
     2  C    1.524800   0.000000
     3  C    2.433575   1.528802   0.000000
     4  C    1.387793   2.603097   3.544915   0.000000
     5  C    1.402699   2.441288   2.841941   2.420973   0.000000
     6  C    2.403399   3.853267   4.628643   1.396004   2.781891
     7  H    2.150822   2.859154   3.883139   1.087105   3.407455
     8  C    2.416778   3.744756   4.111397   2.800303   1.385691
     9  C    2.778704   4.295317   4.856268   2.417363   2.404257
    10  H    3.387741   4.748046   5.555890   2.152904   3.867981
    11  H    3.403962   4.589382   4.774104   3.887386   2.148609
    12  H    3.864685   5.380579   5.891115   3.400434   3.387720
    13  H    2.185826   1.092302   2.175401   2.768698   3.387716
    14  H    2.137545   1.099901   2.109486   3.328699   2.636843
    15  H    2.744071   2.160640   1.077896   4.015309   2.591575
    16  H    2.833522   2.232857   1.090401   3.620013   3.366853
    17  H    2.097731   2.466844   2.539683   3.364354   1.098008
                    6          7          8          9         10
     6  C    0.000000
     7  H    2.160194   0.000000
     8  C    2.418824   3.887398   0.000000
     9  C    1.391397   3.403882   1.397447   0.000000
    10  H    1.086102   2.485683   3.402030   2.150258   0.000000
    11  H    3.404577   4.974470   1.087105   2.160603   4.300351
    12  H    2.150172   4.299769   2.153930   1.085997   2.475152
    13  H    4.152219   2.586560   4.585726   4.886911   4.871071
    14  H    4.464099   3.669328   3.975214   4.719631   5.405052
    15  H    4.894600   4.575557   3.812148   4.813630   5.908620
    16  H    4.646255   3.834638   4.446804   4.990663   5.461651
    17  H    3.874347   4.244233   2.220284   3.440448   4.960102
                   11         12         13         14         15
    11  H    0.000000
    12  H    2.485415   0.000000
    13  H    5.517491   5.961537   0.000000
    14  H    4.677055   5.778356   1.836262   0.000000
    15  H    4.256887   5.788799   3.062298   2.343418   0.000000
    16  H    5.152933   5.977378   2.548782   3.073900   1.873577
    17  H    2.583720   4.353811   3.547479   2.350548   1.943471
                   16         17
    16  H    0.000000
    17  H    3.294506   0.000000
 Stoichiometry    C8H9(2)
 Framework group  C1[X(C8H9)]
 Deg. of freedom    45
 Full point group                 C1      NOp   1
 Largest Abelian subgroup         C1      NOp   1
 Largest concise Abelian subgroup C1      NOp   1
                         Standard orientation:                         
 ---------------------------------------------------------------------
 Center     Atomic      Atomic             Coordinates (Angstroms)
 Number     Number       Type             X           Y           Z
 ---------------------------------------------------------------------
      1          6           0        0.483470    0.297322   -0.268948
      2          6           0        1.988390    0.436126   -0.471339
      3          6           0        2.633072   -0.334811    0.680737
      4          6           0       -0.417952    1.324801   -0.028744
      5          6           0        0.051432   -1.037156   -0.277636
      6          6           0       -1.764310    1.020257    0.179582
      7          1           0       -0.078430    2.357376   -0.011107
      8          6           0       -1.284080   -1.337969   -0.063025
      9          6           0       -2.195285   -0.302593    0.161829
     10          1           0       -2.477508    1.820232    0.355667
     11          1           0       -1.619014   -2.372179   -0.068242
     12          1           0       -3.243943   -0.533065    0.324893
     13          1           0        2.310204    1.479940   -0.474600
     14          1           0        2.260115   -0.114639   -1.383811
     15          1           0        2.475200   -1.395009    0.567086
     16          1           0        2.543920    0.119443    1.667995
     17          1           0        0.861027   -1.757961   -0.452617
 ---------------------------------------------------------------------
 Rotational constants (GHZ):           4.4947098           1.6282766           1.2964783
 Standard basis: 6-31+G(d) (6D, 7F)
 There are   170 symmetry adapted cartesian basis functions of A   symmetry.
 There are   170 symmetry adapted basis functions of A   symmetry.
   170 basis functions,   292 primitive gaussians,   170 cartesian basis functions
    29 alpha electrons       28 beta electrons
       nuclear repulsion energy       332.7181253107 Hartrees.
 NAtoms=   17 NActive=   17 NUniq=   17 SFac= 1.00D+00 NAtFMM=   60 NAOKFM=F Big=F
 Integral buffers will be    131072 words long.
 Raffenetti 2 integral format.
 Two-electron integral symmetry is turned on.
 One-electron integrals computed using PRISM.
 NBasis=   170 RedAO= T EigKep=  4.58D-06  NBF=   170
 NBsUse=   170 1.00D-06 EigRej= -1.00D+00 NBFU=   170
 ExpMin= 4.38D-02 ExpMax= 3.05D+03 ExpMxC= 4.57D+02 IAcc=3 IRadAn=         5 AccDes= 0.00D+00
 Harris functional with IExCor=  402 and IRadAn=       5 diagonalized for initial guess.
 HarFok:  IExCor=  402 AccDes= 0.00D+00 IRadAn=         5 IDoV= 1 UseB2=F ITyADJ=14
 ICtDFT=  3500011 ScaDFX=  1.000000  1.000000  1.000000  1.000000
 FoFCou: FMM=F IPFlag=           0 FMFlag=      100000 FMFlg1=           0
         NFxFlg=           0 DoJE=T BraDBF=F KetDBF=T FulRan=T
         wScrn=  0.000000 ICntrl=       500 IOpCl=  0 I1Cent=   200000004 NGrid=           0
         NMat0=    1 NMatS0=      1 NMatT0=    0 NMatD0=    1 NMtDS0=    0 NMtDT0=    0
 Petite list used in FoFCou.
 Initial guess <Sx>= 0.0000 <Sy>= 0.0000 <Sz>= 0.5000 <S**2>= 0.7500 S= 0.5000
 Keep R1 and R2 ints in memory in canonical form, NReq=215266213.
 Requested convergence on RMS density matrix=1.00D-08 within 128 cycles.
 Requested convergence on MAX density matrix=1.00D-06.
 Requested convergence on             energy=1.00D-06.
 No special actions if energy rises.
 SCF Done:  E(UB3LYP) =  -310.205447020     A.U. after   17 cycles
            NFock= 17  Conv=0.61D-08     -V/T= 2.0097
 <Sx>= 0.0000 <Sy>= 0.0000 <Sz>= 0.5000 <S**2>= 0.7535 S= 0.5017
 <L.S>= 0.000000000000E+00
 Annihilation of the first spin contaminant:
 S**2 before annihilation     0.7535,   after     0.7500

 **********************************************************************

            Population analysis using the SCF density.

 **********************************************************************

 Orbital symmetries:
 Alpha Orbitals:
       Occupied  (A) (A) (A) (A) (A) (A) (A) (A) (A) (A) (A) (A)
                 (A) (A) (A) (A) (A) (A) (A) (A) (A) (A) (A) (A)
                 (A) (A) (A) (A) (A)
       Virtual   (A) (A) (A) (A) (A) (A) (A) (A) (A) (A) (A) (A)
                 (A) (A) (A) (A) (A) (A) (A) (A) (A) (A) (A) (A)
                 (A) (A) (A) (A) (A) (A) (A) (A) (A) (A) (A) (A)
                 (A) (A) (A) (A) (A) (A) (A) (A) (A) (A) (A) (A)
                 (A) (A) (A) (A) (A) (A) (A) (A) (A) (A) (A) (A)
                 (A) (A) (A) (A) (A) (A) (A) (A) (A) (A) (A) (A)
                 (A) (A) (A) (A) (A) (A) (A) (A) (A) (A) (A) (A)
                 (A) (A) (A) (A) (A) (A) (A) (A) (A) (A) (A) (A)
                 (A) (A) (A) (A) (A) (A) (A) (A) (A) (A) (A) (A)
                 (A) (A) (A) (A) (A) (A) (A) (A) (A) (A) (A) (A)
                 (A) (A) (A) (A) (A) (A) (A) (A) (A) (A) (A) (A)
                 (A) (A) (A) (A) (A) (A) (A) (A) (A)
 Beta  Orbitals:
       Occupied  (A) (A) (A) (A) (A) (A) (A) (A) (A) (A) (A) (A)
                 (A) (A) (A) (A) (A) (A) (A) (A) (A) (A) (A) (A)
                 (A) (A) (A) (A)
       Virtual   (A) (A) (A) (A) (A) (A) (A) (A) (A) (A) (A) (A)
                 (A) (A) (A) (A) (A) (A) (A) (A) (A) (A) (A) (A)
                 (A) (A) (A) (A) (A) (A) (A) (A) (A) (A) (A) (A)
                 (A) (A) (A) (A) (A) (A) (A) (A) (A) (A) (A) (A)
                 (A) (A) (A) (A) (A) (A) (A) (A) (A) (A) (A) (A)
                 (A) (A) (A) (A) (A) (A) (A) (A) (A) (A) (A) (A)
                 (A) (A) (A) (A) (A) (A) (A) (A) (A) (A) (A) (A)
                 (A) (A) (A) (A) (A) (A) (A) (A) (A) (A) (A) (A)
                 (A) (A) (A) (A) (A) (A) (A) (A) (A) (A) (A) (A)
                 (A) (A) (A) (A) (A) (A) (A) (A) (A) (A) (A) (A)
                 (A) (A) (A) (A) (A) (A) (A) (A) (A) (A) (A) (A)
                 (A) (A) (A) (A) (A) (A) (A) (A) (A) (A)
 The electronic state is 2-A.
 Alpha  occ. eigenvalues --  -10.20496 -10.20240 -10.19932 -10.19845 -10.19806
 Alpha  occ. eigenvalues --  -10.19625 -10.19586 -10.19501  -0.86785  -0.79806
 Alpha  occ. eigenvalues --   -0.75337  -0.72217  -0.62954  -0.61465  -0.57981
 Alpha  occ. eigenvalues --   -0.52041  -0.48261  -0.46168  -0.44268  -0.42585
 Alpha  occ. eigenvalues --   -0.41813  -0.39735  -0.37954  -0.35855  -0.35078
 Alpha  occ. eigenvalues --   -0.34243  -0.26095  -0.25777  -0.21310
 Alpha virt. eigenvalues --   -0.01815  -0.01001   0.00400   0.01986   0.02104
 Alpha virt. eigenvalues --    0.03339   0.04068   0.04479   0.05726   0.06545
 Alpha virt. eigenvalues --    0.07128   0.07378   0.07702   0.09649   0.10441
 Alpha virt. eigenvalues --    0.11011   0.11581   0.12453   0.12877   0.14059
 Alpha virt. eigenvalues --    0.14274   0.15718   0.16060   0.16216   0.17070
 Alpha virt. eigenvalues --    0.17405   0.18077   0.18937   0.19525   0.21257
 Alpha virt. eigenvalues --    0.21353   0.22198   0.22896   0.23504   0.24293
 Alpha virt. eigenvalues --    0.24714   0.25003   0.26092   0.26296   0.27565
 Alpha virt. eigenvalues --    0.28004   0.29538   0.29717   0.31270   0.33314
 Alpha virt. eigenvalues --    0.34474   0.34946   0.35526   0.39044   0.40909
 Alpha virt. eigenvalues --    0.55883   0.60131   0.62448   0.64255   0.67121
 Alpha virt. eigenvalues --    0.68012   0.68409   0.68960   0.71358   0.72251
 Alpha virt. eigenvalues --    0.73155   0.74218   0.74415   0.75659   0.77562
 Alpha virt. eigenvalues --    0.78318   0.79691   0.81061   0.82341   0.88283
 Alpha virt. eigenvalues --    0.89407   0.92361   0.93125   0.94140   0.96785
 Alpha virt. eigenvalues --    0.98438   1.00786   1.01539   1.04720   1.06624
 Alpha virt. eigenvalues --    1.08474   1.10297   1.12346   1.15105   1.16310
 Alpha virt. eigenvalues --    1.20216   1.22258   1.25000   1.29762   1.32454
 Alpha virt. eigenvalues --    1.38030   1.43128   1.43510   1.46827   1.48029
 Alpha virt. eigenvalues --    1.48942   1.50600   1.50984   1.72632   1.76105
 Alpha virt. eigenvalues --    1.78438   1.83214   1.85500   1.91176   1.95217
 Alpha virt. eigenvalues --    1.96610   1.98402   1.99925   2.04736   2.10996
 Alpha virt. eigenvalues --    2.11993   2.14507   2.15463   2.17785   2.19421
 Alpha virt. eigenvalues --    2.25250   2.29371   2.30855   2.32859   2.36481
 Alpha virt. eigenvalues --    2.38252   2.44224   2.58604   2.61397   2.64874
 Alpha virt. eigenvalues --    2.66700   2.74214   2.74863   2.75565   2.78948
 Alpha virt. eigenvalues --    2.92197   3.07468   3.41041   4.18894   4.23969
 Alpha virt. eigenvalues --    4.24550   4.29046   4.37136   4.40355   4.49530
 Alpha virt. eigenvalues --    4.71864
  Beta  occ. eigenvalues --  -10.20381 -10.19979 -10.19852 -10.19807 -10.19597
  Beta  occ. eigenvalues --  -10.19562 -10.19473 -10.18861  -0.86636  -0.79157
  Beta  occ. eigenvalues --   -0.75283  -0.71248  -0.61862  -0.60871  -0.57438
  Beta  occ. eigenvalues --   -0.51927  -0.47957  -0.46014  -0.43958  -0.42466
  Beta  occ. eigenvalues --   -0.41304  -0.39208  -0.37614  -0.35566  -0.34612
  Beta  occ. eigenvalues --   -0.34093  -0.25930  -0.24988
  Beta virt. eigenvalues --   -0.06899  -0.01718  -0.00646   0.00449   0.02007
  Beta virt. eigenvalues --    0.02256   0.03466   0.04111   0.04604   0.05901
  Beta virt. eigenvalues --    0.06869   0.07129   0.07393   0.07950   0.09706
  Beta virt. eigenvalues --    0.10548   0.11381   0.11659   0.12576   0.13064
  Beta virt. eigenvalues --    0.14150   0.14389   0.15884   0.16177   0.16360
  Beta virt. eigenvalues --    0.17136   0.17500   0.18127   0.19106   0.19645
  Beta virt. eigenvalues --    0.21279   0.21501   0.22294   0.23168   0.23634
  Beta virt. eigenvalues --    0.24419   0.24820   0.25316   0.26330   0.26509
  Beta virt. eigenvalues --    0.27813   0.28290   0.29748   0.30569   0.31770
  Beta virt. eigenvalues --    0.33487   0.34614   0.35049   0.35612   0.39196
  Beta virt. eigenvalues --    0.41257   0.56018   0.60235   0.63195   0.64970
  Beta virt. eigenvalues --    0.67293   0.68383   0.68962   0.70475   0.71553
  Beta virt. eigenvalues --    0.72381   0.73436   0.74500   0.74602   0.76060
  Beta virt. eigenvalues --    0.77802   0.78590   0.80048   0.82390   0.83527
  Beta virt. eigenvalues --    0.88548   0.89540   0.92770   0.93218   0.94303
  Beta virt. eigenvalues --    0.96831   0.98958   1.00910   1.01779   1.05238
  Beta virt. eigenvalues --    1.07754   1.08531   1.10702   1.12519   1.15412
  Beta virt. eigenvalues --    1.16407   1.20342   1.22644   1.25530   1.30260
  Beta virt. eigenvalues --    1.32887   1.39093   1.43268   1.43658   1.47055
  Beta virt. eigenvalues --    1.48187   1.49121   1.50707   1.51545   1.74854
  Beta virt. eigenvalues --    1.78404   1.80062   1.83474   1.85763   1.91356
  Beta virt. eigenvalues --    1.95434   1.97915   1.99559   2.00333   2.05834
  Beta virt. eigenvalues --    2.11367   2.12162   2.15525   2.16202   2.19700
  Beta virt. eigenvalues --    2.20223   2.26166   2.29514   2.31032   2.33727
  Beta virt. eigenvalues --    2.36721   2.38773   2.45451   2.58961   2.61565
  Beta virt. eigenvalues --    2.65191   2.67305   2.74250   2.74976   2.75641
  Beta virt. eigenvalues --    2.79097   2.92371   3.07593   3.41119   4.21240
  Beta virt. eigenvalues --    4.24161   4.24612   4.29409   4.37328   4.40684
  Beta virt. eigenvalues --    4.49814   4.71951
          Condensed to atoms (all electrons):
               1          2          3          4          5          6
     1  C    9.210452  -0.851157  -0.055833  -1.250388  -0.303967  -0.325061
     2  C   -0.851157   6.373803   0.208763   0.533627  -0.095957  -0.110492
     3  C   -0.055833   0.208763   5.622149   0.023594  -0.113907   0.023229
     4  C   -1.250388   0.533627   0.023594  10.397572  -3.913633   0.444886
     5  C   -0.303967  -0.095957  -0.113907  -3.913633  10.476818  -0.184681
     6  C   -0.325061  -0.110492   0.023229   0.444886  -0.184681   5.608341
     7  H    0.026259  -0.012886   0.003224   0.215736   0.031326   0.012739
     8  C   -0.177393  -0.177028   0.031495  -0.197288  -0.110735  -0.124087
     9  C   -0.514156   0.041673  -0.013220  -0.019567   0.145263   0.583333
    10  H    0.033085  -0.001805  -0.000161  -0.028863  -0.008416   0.298168
    11  H    0.020971  -0.000928   0.000964  -0.006894  -0.013693   0.009527
    12  H   -0.000876   0.001124  -0.000171   0.006823   0.007315   0.007331
    13  H   -0.131610   0.416638  -0.025510   0.044878  -0.015571   0.014684
    14  H   -0.076429   0.399239  -0.083181  -0.038776   0.058362  -0.003759
    15  H   -0.018320  -0.069994   0.403743   0.017761  -0.015547   0.005119
    16  H    0.048422  -0.083494   0.363622  -0.074514   0.066952  -0.003061
    17  H    0.062500  -0.003260  -0.013173   0.044662   0.189835  -0.003919
               7          8          9         10         11         12
     1  C    0.026259  -0.177393  -0.514156   0.033085   0.020971  -0.000876
     2  C   -0.012886  -0.177028   0.041673  -0.001805  -0.000928   0.001124
     3  C    0.003224   0.031495  -0.013220  -0.000161   0.000964  -0.000171
     4  C    0.215736  -0.197288  -0.019567  -0.028863  -0.006894   0.006823
     5  C    0.031326  -0.110735   0.145263  -0.008416  -0.013693   0.007315
     6  C    0.012739  -0.124087   0.583333   0.298168   0.009527   0.007331
     7  H    0.548911  -0.010608   0.011919  -0.004677   0.000018  -0.000158
     8  C   -0.010608   6.205266   0.482101   0.010103   0.287756  -0.010700
     9  C    0.011919   0.482101   5.157856  -0.010203  -0.007672   0.281747
    10  H   -0.004677   0.010103  -0.010203   0.539504  -0.000163  -0.005089
    11  H    0.000018   0.287756  -0.007672  -0.000163   0.540426  -0.004995
    12  H   -0.000158  -0.010700   0.281747  -0.005089  -0.004995   0.541250
    13  H    0.003598  -0.008910   0.002792  -0.000001   0.000003  -0.000000
    14  H    0.000026   0.021918   0.004135   0.000003  -0.000003   0.000000
    15  H    0.000000   0.002026  -0.002602   0.000000   0.000007   0.000000
    16  H   -0.000024   0.015034  -0.000039   0.000000  -0.000000  -0.000000
    17  H   -0.000187  -0.008394  -0.002770   0.000018  -0.004173  -0.000147
              13         14         15         16         17
     1  C   -0.131610  -0.076429  -0.018320   0.048422   0.062500
     2  C    0.416638   0.399239  -0.069994  -0.083494  -0.003260
     3  C   -0.025510  -0.083181   0.403743   0.363622  -0.013173
     4  C    0.044878  -0.038776   0.017761  -0.074514   0.044662
     5  C   -0.015571   0.058362  -0.015547   0.066952   0.189835
     6  C    0.014684  -0.003759   0.005119  -0.003061  -0.003919
     7  H    0.003598   0.000026   0.000000  -0.000024  -0.000187
     8  C   -0.008910   0.021918   0.002026   0.015034  -0.008394
     9  C    0.002792   0.004135  -0.002602  -0.000039  -0.002770
    10  H   -0.000001   0.000003   0.000000   0.000000   0.000018
    11  H    0.000003  -0.000003   0.000007  -0.000000  -0.004173
    12  H   -0.000000   0.000000   0.000000  -0.000000  -0.000147
    13  H    0.520595  -0.023339   0.004594  -0.004340   0.000294
    14  H   -0.023339   0.521268  -0.006368   0.004532   0.001453
    15  H    0.004594  -0.006368   0.531714  -0.030286   0.003126
    16  H   -0.004340   0.004532  -0.030286   0.504249   0.000135
    17  H    0.000294   0.001453   0.003126   0.000135   0.569826
          Atomic-Atomic Spin Densities.
               1          2          3          4          5          6
     1  C    0.427782  -0.174995  -0.017663  -0.578922   0.055116   0.181186
     2  C   -0.174995   0.089164  -0.109177   0.376840  -0.042005  -0.073580
     3  C   -0.017663  -0.109177   1.317252  -0.041699  -0.056236   0.017343
     4  C   -0.578922   0.376840  -0.041699   0.725658   0.097742  -0.268538
     5  C    0.055116  -0.042005  -0.056236   0.097742   0.146593  -0.059567
     6  C    0.181186  -0.073580   0.017343  -0.268538  -0.059567   0.113088
     7  H    0.013507  -0.005947   0.000450  -0.013052   0.000594   0.003396
     8  C    0.189060  -0.194280   0.046881  -0.353786  -0.185500   0.150174
     9  C   -0.076517   0.038304  -0.003397   0.123348   0.009583  -0.069292
    10  H    0.004280  -0.001267   0.000136  -0.006731  -0.001143   0.005102
    11  H    0.000847  -0.001090   0.000300  -0.002345  -0.006110   0.001969
    12  H   -0.000095   0.000030  -0.000011   0.000252   0.000130  -0.000138
    13  H    0.028447  -0.013223  -0.009654  -0.030678   0.014059   0.001761
    14  H    0.014721  -0.011809  -0.010581  -0.018951   0.008411   0.002155
    15  H    0.001437  -0.013498  -0.013054  -0.009602   0.015575   0.000004
    16  H    0.021854  -0.020069  -0.008434  -0.003233  -0.012617   0.003878
    17  H    0.001730  -0.004039   0.001432  -0.004256  -0.003761   0.001327
               7          8          9         10         11         12
     1  C    0.013507   0.189060  -0.076517   0.004280   0.000847  -0.000095
     2  C   -0.005947  -0.194280   0.038304  -0.001267  -0.001090   0.000030
     3  C    0.000450   0.046881  -0.003397   0.000136   0.000300  -0.000011
     4  C   -0.013052  -0.353786   0.123348  -0.006731  -0.002345   0.000252
     5  C    0.000594  -0.185500   0.009583  -0.001143  -0.006110   0.000130
     6  C    0.003396   0.150174  -0.069292   0.005102   0.001969  -0.000138
     7  H   -0.000180   0.002291  -0.001701   0.000092   0.000000   0.000000
     8  C    0.002291   0.377888  -0.049073   0.001743   0.006759  -0.000847
     9  C   -0.001701  -0.049073   0.050862  -0.002397  -0.000514   0.000670
    10  H    0.000092   0.001743  -0.002397   0.000859   0.000001   0.000007
    11  H    0.000000   0.006759  -0.000514   0.000001   0.000581   0.000011
    12  H    0.000000  -0.000847   0.000670   0.000007   0.000011  -0.001049
    13  H    0.000197   0.004287  -0.000957   0.000001   0.000000  -0.000000
    14  H    0.000026   0.010881  -0.001152   0.000000   0.000001  -0.000000
    15  H    0.000002   0.003698   0.000600   0.000000   0.000005  -0.000000
    16  H    0.000019   0.004861  -0.000995   0.000000   0.000000   0.000000
    17  H    0.000003   0.007907  -0.000345   0.000000   0.000046   0.000000
              13         14         15         16         17
     1  C    0.028447   0.014721   0.001437   0.021854   0.001730
     2  C   -0.013223  -0.011809  -0.013498  -0.020069  -0.004039
     3  C   -0.009654  -0.010581  -0.013054  -0.008434   0.001432
     4  C   -0.030678  -0.018951  -0.009602  -0.003233  -0.004256
     5  C    0.014059   0.008411   0.015575  -0.012617  -0.003761
     6  C    0.001761   0.002155   0.000004   0.003878   0.001327
     7  H    0.000197   0.000026   0.000002   0.000019   0.000003
     8  C    0.004287   0.010881   0.003698   0.004861   0.007907
     9  C   -0.000957  -0.001152   0.000600  -0.000995  -0.000345
    10  H    0.000001   0.000000   0.000000   0.000000   0.000000
    11  H    0.000000   0.000001   0.000005   0.000000   0.000046
    12  H   -0.000000  -0.000000  -0.000000   0.000000   0.000000
    13  H    0.011263   0.002168   0.000027   0.001161   0.000032
    14  H    0.002168   0.010032   0.001554   0.000129   0.000242
    15  H    0.000027   0.001554  -0.034562   0.002963   0.000684
    16  H    0.001161   0.000129   0.002963  -0.030644   0.000084
    17  H    0.000032   0.000242   0.000684   0.000084  -0.000568
 Mulliken charges and spin densities:
               1          2
     1  C    0.303501   0.091776
     2  C   -0.567865  -0.160642
     3  C   -0.375626   1.113888
     4  C   -0.199615  -0.007954
     5  C   -0.199765  -0.019137
     6  C   -0.252299   0.010268
     7  H    0.174782  -0.000302
     8  C   -0.230557   0.022945
     9  C   -0.140592   0.017027
    10  H    0.178496   0.000683
    11  H    0.178849   0.000463
    12  H    0.176547  -0.001041
    13  H    0.201205   0.008891
    14  H    0.220922   0.007828
    15  H    0.175028  -0.044168
    16  H    0.192812  -0.041044
    17  H    0.164176   0.000519
 Sum of Mulliken charges =  -0.00000   1.00000
 Mulliken charges and spin densities with hydrogens summed into heavy atoms:
               1          2
     1  C    0.303501   0.091776
     2  C   -0.145738  -0.143923
     3  C   -0.007786   1.028677
     4  C   -0.024833  -0.008256
     5  C   -0.035589  -0.018618
     6  C   -0.073803   0.010951
     8  C   -0.051708   0.023408
     9  C    0.035955   0.015986
 Electronic spatial extent (au):  <R**2>=            960.2189
 Charge=             -0.0000 electrons
 Dipole moment (field-independent basis, Debye):
    X=             -0.4792    Y=              0.0634    Z=             -0.0361  Tot=              0.4847
 Quadrupole moment (field-independent basis, Debye-Ang):
   XX=            -49.8917   YY=            -44.7047   ZZ=            -52.2234
   XY=              0.2859   XZ=             -1.7195   YZ=              0.9766
 Traceless Quadrupole moment (field-independent basis, Debye-Ang):
   XX=             -0.9517   YY=              4.2352   ZZ=             -3.2835
   XY=              0.2859   XZ=             -1.7195   YZ=              0.9766
 Octapole moment (field-independent basis, Debye-Ang**2):
  XXX=            -32.0340  YYY=              0.9012  ZZZ=              0.4374  XYY=             -1.7984
  XXY=              1.4013  XXZ=             -0.5166  XZZ=              4.8355  YZZ=              0.3980
  YYZ=             -0.0663  XYZ=              0.9358
 Hexadecapole moment (field-independent basis, Debye-Ang**3):
 XXXX=           -984.9611 YYYY=           -320.4167 ZZZZ=           -119.2096 XXXY=              9.4259
 XXXZ=            -25.2444 YYYX=              2.3484 YYYZ=              2.9199 ZZZX=              0.6029
 ZZZY=              1.9090 XXYY=           -197.2625 XXZZ=           -180.6162 YYZZ=            -84.4037
 XXYZ=              5.3575 YYXZ=             -3.6436 ZZXY=              0.4608
 N-N= 3.327181253107D+02 E-N=-1.382457392873D+03  KE= 3.072106995495D+02
                          Isotropic Fermi Contact Couplings
        Atom                 a.u.       MegaHertz       Gauss      10(-4) cm-1
     1  C(13)              0.05158      57.99109      20.69266      19.34375
     2  C(13)             -0.01352     -15.19347      -5.42141      -5.06800
     3  C(13)              0.17774     199.81620      71.29939      66.65151
     4  C(13)              0.00257       2.89001       1.03123       0.96400
     5  C(13)              0.00315       3.54469       1.26483       1.18238
     6  C(13)              0.00102       1.14531       0.40867       0.38203
     7  H(1)              -0.00010      -0.46722      -0.16672      -0.15585
     8  C(13)             -0.00129      -1.45077      -0.51767      -0.48393
     9  C(13)              0.00226       2.53948       0.90615       0.84708
    10  H(1)               0.00025       1.11514       0.39791       0.37197
    11  H(1)               0.00016       0.69632       0.24846       0.23227
    12  H(1)              -0.00030      -1.35057      -0.48192      -0.45050
    13  H(1)               0.00462      20.67229       7.37639       6.89553
    14  H(1)               0.00383      17.13547       6.11436       5.71578
    15  H(1)              -0.00908     -40.57662     -14.47875     -13.53490
    16  H(1)              -0.00854     -38.17151     -13.62054     -12.73265
    17  H(1)              -0.00026      -1.15358      -0.41162      -0.38479
 --------------------------------------------------------
       Center         ----  Spin Dipole Couplings  ----
                      3XX-RR        3YY-RR        3ZZ-RR
 --------------------------------------------------------
     1   Atom        0.074609     -0.031128     -0.043480
     2   Atom        0.014535     -0.009800     -0.004736
     3   Atom        0.950243     -0.493318     -0.456926
     4   Atom       -0.007878     -0.009381      0.017259
     5   Atom        0.001889     -0.010093      0.008204
     6   Atom        0.004717     -0.000482     -0.004234
     7   Atom       -0.000317      0.002867     -0.002550
     8   Atom        0.005859      0.000319     -0.006178
     9   Atom       -0.006251     -0.010834      0.017085
    10   Atom        0.001254     -0.000056     -0.001198
    11   Atom        0.001885     -0.000436     -0.001448
    12   Atom        0.002483     -0.001727     -0.000756
    13   Atom       -0.006484      0.009457     -0.002973
    14   Atom       -0.006454     -0.011243      0.017698
    15   Atom       -0.008410      0.069050     -0.060640
    16   Atom       -0.009618     -0.037148      0.046767
    17   Atom        0.002912      0.000119     -0.003031
 --------------------------------------------------------
                        XY            XZ            YZ
 --------------------------------------------------------
     1   Atom        0.003211      0.011770     -0.001025
     2   Atom       -0.010749      0.011443     -0.011297
     3   Atom        0.125384     -0.265503     -0.024430
     4   Atom       -0.005439     -0.004215      0.006150
     5   Atom       -0.000214      0.017232     -0.008145
     6   Atom        0.000078     -0.004386     -0.000360
     7   Atom       -0.002642      0.000787     -0.000033
     8   Atom        0.001552      0.001146      0.001156
     9   Atom        0.000223      0.002983     -0.001058
    10   Atom       -0.000978     -0.000120     -0.000114
    11   Atom        0.001567      0.000418      0.000103
    12   Atom        0.000868     -0.000269     -0.000155
    13   Atom       -0.005813      0.003102     -0.012397
    14   Atom       -0.000498      0.007817     -0.002970
    15   Atom        0.015806     -0.008956      0.016877
    16   Atom        0.004304     -0.011441      0.051848
    17   Atom        0.006354      0.005105      0.006741
 --------------------------------------------------------


 ---------------------------------------------------------------------------------
              Anisotropic Spin Dipole Couplings in Principal Axis System
 ---------------------------------------------------------------------------------

       Atom             a.u.   MegaHertz   Gauss  10(-4) cm-1        Axes

              Baa    -0.0448    -6.008    -2.144    -2.004 -0.1003  0.0980  0.9901
     1 C(13)  Bbb    -0.0311    -4.171    -1.488    -1.391 -0.0190  0.9948 -0.1003
              Bcc     0.0759    10.180     3.632     3.396  0.9948  0.0289  0.0979
 
              Baa    -0.0189    -2.538    -0.906    -0.847  0.0540  0.8017  0.5953
     2 C(13)  Bbb    -0.0070    -0.939    -0.335    -0.313 -0.5845 -0.4580  0.6698
              Bcc     0.0259     3.477     1.241     1.160  0.8096 -0.3841  0.4439
 
              Baa    -0.5064   -67.954   -24.248   -22.667  0.1009  0.5637  0.8198
     3 C(13)  Bbb    -0.5031   -67.515   -24.091   -22.520 -0.1703  0.8216 -0.5440
              Bcc     1.0095   135.469    48.339    45.188  0.9802  0.0847 -0.1789
 
              Baa    -0.0143    -1.912    -0.682    -0.638  0.6207  0.7810 -0.0694
     4 C(13)  Bbb    -0.0054    -0.724    -0.258    -0.242  0.7600 -0.5775  0.2981
              Bcc     0.0196     2.637     0.941     0.879 -0.1927  0.2378  0.9520
 
              Baa    -0.0169    -2.267    -0.809    -0.756 -0.5067  0.6551  0.5605
     5 C(13)  Bbb    -0.0069    -0.926    -0.330    -0.309  0.6110  0.7315 -0.3026
              Bcc     0.0238     3.193     1.139     1.065  0.6082 -0.1891  0.7709
 
              Baa    -0.0060    -0.811    -0.289    -0.270  0.3766  0.0545  0.9248
     6 C(13)  Bbb    -0.0005    -0.063    -0.023    -0.021 -0.0482  0.9981 -0.0392
              Bcc     0.0065     0.874     0.312     0.292  0.9251  0.0298 -0.3785
 
              Baa    -0.0030    -1.580    -0.564    -0.527 -0.4608 -0.2040  0.8637
     7 H(1)   Bbb    -0.0014    -0.759    -0.271    -0.253  0.7355  0.4569  0.5003
              Bcc     0.0044     2.339     0.835     0.780 -0.4967  0.8658 -0.0605
 
              Baa    -0.0064    -0.864    -0.308    -0.288 -0.0727 -0.1519  0.9857
     8 C(13)  Bbb     0.0000     0.003     0.001     0.001 -0.2779  0.9523  0.1263
              Bcc     0.0064     0.862     0.307     0.287  0.9579  0.2647  0.1114
 
              Baa    -0.0109    -1.463    -0.522    -0.488 -0.0772  0.9960  0.0459
     9 C(13)  Bbb    -0.0066    -0.885    -0.316    -0.295  0.9892  0.0822 -0.1210
              Bcc     0.0175     2.348     0.838     0.783  0.1242 -0.0360  0.9916
 
              Baa    -0.0012    -0.660    -0.235    -0.220  0.1242  0.1972  0.9725
    10 H(1)   Bbb    -0.0005    -0.289    -0.103    -0.096  0.4535  0.8604 -0.2324
              Bcc     0.0018     0.948     0.338     0.316  0.8826 -0.4699 -0.0174
 
              Baa    -0.0015    -0.812    -0.290    -0.271 -0.2226  0.2316  0.9470
    11 H(1)   Bbb    -0.0012    -0.638    -0.228    -0.213 -0.3987  0.8648 -0.3052
              Bcc     0.0027     1.449     0.517     0.483  0.8896  0.4455  0.1002
 
              Baa    -0.0019    -1.018    -0.363    -0.340 -0.1880  0.9782  0.0880
    12 H(1)   Bbb    -0.0008    -0.412    -0.147    -0.137  0.1006 -0.0700  0.9925
              Bcc     0.0027     1.430     0.510     0.477  0.9770  0.1954 -0.0852
 
              Baa    -0.0107    -5.704    -2.035    -1.903  0.1543  0.5497  0.8210
    13 H(1)   Bbb    -0.0081    -4.337    -1.548    -1.447  0.9555  0.1286 -0.2657
              Bcc     0.0188    10.041     3.583     3.349 -0.2516  0.8254 -0.5054
 
              Baa    -0.0116    -6.175    -2.203    -2.060 -0.0962  0.9874  0.1259
    14 H(1)   Bbb    -0.0087    -4.651    -1.660    -1.551  0.9549  0.1272 -0.2683
              Bcc     0.0203    10.826     3.863     3.611  0.2809 -0.0944  0.9551
 
              Baa    -0.0650   -34.658   -12.367   -11.561  0.1942 -0.1451  0.9702
    15 H(1)   Bbb    -0.0089    -4.723    -1.685    -1.576  0.9651 -0.1491 -0.2155
              Bcc     0.0738    39.381    14.052    13.136  0.1759  0.9781  0.1111
 
              Baa    -0.0633   -33.800   -12.061   -11.274 -0.1634  0.8859 -0.4341
    16 H(1)   Bbb    -0.0090    -4.824    -1.721    -1.609  0.9811  0.1921  0.0227
              Bcc     0.0724    38.623    13.782    12.883 -0.1035  0.4222  0.9006
 
              Baa    -0.0084    -4.471    -1.595    -1.491 -0.0077 -0.6179  0.7862
    17 H(1)   Bbb    -0.0041    -2.167    -0.773    -0.723  0.7598 -0.5147 -0.3971
              Bcc     0.0124     6.637     2.368     2.214  0.6501  0.5943  0.4735
 

 ---------------------------------------------------------------------------------

 1\1\GINC-NODE31\SP\UB3LYP\6-31+G(d)\C8H9(2)\YANZ\12-Oct-2023\0\\# ub3l
 yp/6-31+g(d)\\tmpdir/M3_conf_0_5.gjf\\0,2\C,0,0.,0.,0.\C,0,1.5248,0.,0
 .\C,0,1.93798,0.,1.47191\C,0,-0.82802,0.98877,-0.51253\C,0,-0.54673,-1
 .11256,0.6564\C,0,-2.2122,0.85413,-0.3911\H,0,-0.40127,1.8557,-1.01064
 \C,0,-1.9207,-1.24062,0.78268\C,0,-2.75562,-0.25382,0.25165\H,0,-2.866
 65,1.6179,-0.80094\H,0,-2.34472,-2.102,1.29261\H,0,-3.83323,-0.35265,0
 .34319\H,0,1.93787,0.86466,-0.52427\H,0,1.86396,-0.96603,-0.40192\H,0,
 1.70074,-0.94365,1.9357\H,0,1.7603,0.92719,2.01755\H,0,0.20992,-1.8101
 2,1.03917\\Version=ES64L-G16RevA.03\State=2-A\HF=-310.205447\S2=0.7534
 94\S2-1=0.\S2A=0.750009\RMSD=6.105e-09\Dipole=-0.1819058,0.0131187,-0.
 0556959\Quadrupole=-0.3505735,2.0891253,-1.7385518,-0.1521514,-1.01643
 65,-2.3628052\PG=C01 [X(C8H9)]\\@


 Life may have no meaning.  Or even worse, it may have a
 meaning of which I disapprove.
                                 -- Ashleigh Brilliant
 Job cpu time:       0 days  0 hours  5 minutes 19.2 seconds.
 Elapsed time:       0 days  0 hours  1 minutes 26.5 seconds.
 File lengths (MBytes):  RWF=     23 Int=      0 D2E=      0 Chk=      3 Scr=      1
 Normal termination of Gaussian 16 at Thu Oct 12 15:28:57 2023.
