 Entering Gaussian System, Link 0=g16
 Initial command:
 /share/apps/gaussian/g16/l1.exe "/tmp/58287.mgr/Gau-22735.inp" -scrdir="/tmp/58287.mgr/"
 Entering Link 1 = /share/apps/gaussian/g16/l1.exe PID=     22736.
  
 Copyright (c) 1988,1990,1992,1993,1995,1998,2003,2009,2016,
            Gaussian, Inc.  All Rights Reserved.
  
 This is part of the Gaussian(R) 16 program.  It is based on
 the Gaussian(R) 09 system (copyright 2009, Gaussian, Inc.),
 the Gaussian(R) 03 system (copyright 2003, Gaussian, Inc.),
 the Gaussian(R) 98 system (copyright 1998, Gaussian, Inc.),
 the Gaussian(R) 94 system (copyright 1995, Gaussian, Inc.),
 the Gaussian 92(TM) system (copyright 1992, Gaussian, Inc.),
 the Gaussian 90(TM) system (copyright 1990, Gaussian, Inc.),
 the Gaussian 88(TM) system (copyright 1988, Gaussian, Inc.),
 the Gaussian 86(TM) system (copyright 1986, Carnegie Mellon
 University), and the Gaussian 82(TM) system (copyright 1983,
 Carnegie Mellon University). Gaussian is a federally registered
 trademark of Gaussian, Inc.
  
 This software contains proprietary and confidential information,
 including trade secrets, belonging to Gaussian, Inc.
  
 This software is provided under written license and may be
 used, copied, transmitted, or stored only in accord with that
 written license.
  
 The following legend is applicable only to US Government
 contracts under FAR:
  
                    RESTRICTED RIGHTS LEGEND
  
 Use, reproduction and disclosure by the US Government is
 subject to restrictions as set forth in subparagraphs (a)
 and (c) of the Commercial Computer Software - Restricted
 Rights clause in FAR 52.227-19.
  
 Gaussian, Inc.
 340 Quinnipiac St., Bldg. 40, Wallingford CT 06492
  
  
 ---------------------------------------------------------------
 Warning -- This program may not be used in any manner that
 competes with the business of Gaussian, Inc. or will provide
 assistance to any competitor of Gaussian, Inc.  The licensee
 of this program is prohibited from giving any competitor of
 Gaussian, Inc. access to this program.  By using this program,
 the user acknowledges that Gaussian, Inc. is engaged in the
 business of creating and licensing software in the field of
 computational chemistry and represents and warrants to the
 licensee that it is not a competitor of Gaussian, Inc. and that
 it will not use this program in any manner prohibited above.
 ---------------------------------------------------------------
  

 Cite this work as:
 Gaussian 16, Revision A.03,
 M. J. Frisch, G. W. Trucks, H. B. Schlegel, G. E. Scuseria, 
 M. A. Robb, J. R. Cheeseman, G. Scalmani, V. Barone, 
 G. A. Petersson, H. Nakatsuji, X. Li, M. Caricato, A. V. Marenich, 
 J. Bloino, B. G. Janesko, R. Gomperts, B. Mennucci, H. P. Hratchian, 
 J. V. Ortiz, A. F. Izmaylov, J. L. Sonnenberg, D. Williams-Young, 
 F. Ding, F. Lipparini, F. Egidi, J. Goings, B. Peng, A. Petrone, 
 T. Henderson, D. Ranasinghe, V. G. Zakrzewski, J. Gao, N. Rega, 
 G. Zheng, W. Liang, M. Hada, M. Ehara, K. Toyota, R. Fukuda, 
 J. Hasegawa, M. Ishida, T. Nakajima, Y. Honda, O. Kitao, H. Nakai, 
 T. Vreven, K. Throssell, J. A. Montgomery, Jr., J. E. Peralta, 
 F. Ogliaro, M. J. Bearpark, J. J. Heyd, E. N. Brothers, K. N. Kudin, 
 V. N. Staroverov, T. A. Keith, R. Kobayashi, J. Normand, 
 K. Raghavachari, A. P. Rendell, J. C. Burant, S. S. Iyengar, 
 J. Tomasi, M. Cossi, J. M. Millam, M. Klene, C. Adamo, R. Cammi, 
 J. W. Ochterski, R. L. Martin, K. Morokuma, O. Farkas, 
 J. B. Foresman, and D. J. Fox, Gaussian, Inc., Wallingford CT, 2016.
 
 ******************************************
 Gaussian 16:  ES64L-G16RevA.03 25-Dec-2016
                12-Oct-2023 
 ******************************************
 %nprocshared=4
 Will use up to    4 processors via shared memory.
 %mem=4GB
 ------------------
 # ub3lyp/6-31+g(d)
 ------------------
 1/38=1,172=1/1;
 2/12=2,17=6,18=5,40=1/2;
 3/5=1,6=6,7=11,11=2,25=1,30=1,74=-5,116=2/1,2,3;
 4//1;
 5/5=2,38=5/2;
 6/7=2,8=2,9=2,10=2,28=1/1;
 99/5=1,9=1/99;
 -----------------------
 tmpdir/M3_conf_0_31.gjf
 -----------------------
 Symbolic Z-matrix:
 Charge =  0 Multiplicity = 1
 C                     0.        0.        0. 
 C                     1.5278    0.        0. 
 C                     2.13361   0.        1.19154 
 H                    -0.34003   0.83609   0.62525 
 H                    -0.19334  -0.94292   0.54637 
 H                    -0.42584   0.01685  -1.00551 
 H                     2.08758  -0.06567  -0.92747 
 H                     1.449     0.01449   2.05228 
 H                     3.2089   -0.03507   1.32815 
 
                          Input orientation:                          
 ---------------------------------------------------------------------
 Center     Atomic      Atomic             Coordinates (Angstroms)
 Number     Number       Type             X           Y           Z
 ---------------------------------------------------------------------
      1          6           0        0.000000    0.000000    0.000000
      2          6           0        1.527800    0.000000    0.000000
      3          6           0        2.133610    0.000000    1.191540
      4          1           0       -0.340030    0.836090    0.625250
      5          1           0       -0.193340   -0.942920    0.546370
      6          1           0       -0.425840    0.016850   -1.005510
      7          1           0        2.087580   -0.065670   -0.927470
      8          1           0        1.449000    0.014490    2.052280
      9          1           0        3.208900   -0.035070    1.328150
 ---------------------------------------------------------------------
                    Distance matrix (angstroms):
                    1          2          3          4          5
     1  C    0.000000
     2  C    1.527800   0.000000
     3  C    2.443780   1.336702   0.000000
     4  H    1.098000   2.139807   2.671821   0.000000
     5  H    1.106797   2.037140   2.592304   1.786789   0.000000
     6  H    1.092096   2.197281   3.373143   1.826991   1.839442
     7  H    2.285280   1.085296   2.120527   3.019503   2.853834
     8  H    2.512303   2.053843   1.099897   2.431475   2.425217
     9  H    3.473075   2.142734   1.084500   3.721276   3.607022
                    6          7          8          9
     6  H    0.000000
     7  H    2.515985   0.000000
     8  H    3.586797   3.048462   0.000000
     9  H    4.319722   2.519150   1.903699   0.000000
 Stoichiometry    C3H6
 Framework group  C1[X(C3H6)]
 Deg. of freedom    21
 Full point group                 C1      NOp   1
 Largest Abelian subgroup         C1      NOp   1
 Largest concise Abelian subgroup C1      NOp   1
                         Standard orientation:                         
 ---------------------------------------------------------------------
 Center     Atomic      Atomic             Coordinates (Angstroms)
 Number     Number       Type             X           Y           Z
 ---------------------------------------------------------------------
      1          6           0        1.214086   -0.170520   -0.000458
      2          6           0       -0.142535    0.531876   -0.020192
      3          6           0       -1.228481   -0.247384   -0.004437
      4          1           0        1.230434   -0.901566   -0.819549
      5          1           0        1.132245   -0.722271    0.955508
      6          1           0        2.054708    0.525938   -0.031702
      7          1           0       -0.213190    1.614128    0.019875
      8          1           0       -1.016413   -1.326584    0.006954
      9          1           0       -2.246205    0.126524    0.019438
 ---------------------------------------------------------------------
 Rotational constants (GHZ):          41.7349032           9.9348421           8.4550603
 Standard basis: 6-31+G(d) (6D, 7F)
 There are    69 symmetry adapted cartesian basis functions of A   symmetry.
 There are    69 symmetry adapted basis functions of A   symmetry.
    69 basis functions,   120 primitive gaussians,    69 cartesian basis functions
    12 alpha electrons       12 beta electrons
       nuclear repulsion energy        70.9590404439 Hartrees.
 NAtoms=    9 NActive=    9 NUniq=    9 SFac= 1.00D+00 NAtFMM=   60 NAOKFM=F Big=F
 Integral buffers will be    131072 words long.
 Raffenetti 2 integral format.
 Two-electron integral symmetry is turned on.
 One-electron integrals computed using PRISM.
 NBasis=    69 RedAO= T EigKep=  1.71D-04  NBF=    69
 NBsUse=    69 1.00D-06 EigRej= -1.00D+00 NBFU=    69
 ExpMin= 4.38D-02 ExpMax= 3.05D+03 ExpMxC= 4.57D+02 IAcc=3 IRadAn=         5 AccDes= 0.00D+00
 Harris functional with IExCor=  402 and IRadAn=       5 diagonalized for initial guess.
 HarFok:  IExCor=  402 AccDes= 0.00D+00 IRadAn=         5 IDoV= 1 UseB2=F ITyADJ=14
 ICtDFT=  3500011 ScaDFX=  1.000000  1.000000  1.000000  1.000000
 FoFCou: FMM=F IPFlag=           0 FMFlag=      100000 FMFlg1=           0
         NFxFlg=           0 DoJE=T BraDBF=F KetDBF=T FulRan=T
         wScrn=  0.000000 ICntrl=       500 IOpCl=  0 I1Cent=   200000004 NGrid=           0
         NMat0=    1 NMatS0=      1 NMatT0=    0 NMatD0=    1 NMtDS0=    0 NMtDT0=    0
 Petite list used in FoFCou.
 Initial guess <Sx>= 0.0000 <Sy>= 0.0000 <Sz>= 0.0000 <S**2>=-0.0000 S=-0.0000
 Keep R1 and R2 ints in memory in canonical form, NReq=9403921.
 Requested convergence on RMS density matrix=1.00D-08 within 128 cycles.
 Requested convergence on MAX density matrix=1.00D-06.
 Requested convergence on             energy=1.00D-06.
 No special actions if energy rises.
 SCF Done:  E(UB3LYP) =  -117.902155319     A.U. after   11 cycles
            NFock= 11  Conv=0.21D-08     -V/T= 2.0107
 <Sx>= 0.0000 <Sy>= 0.0000 <Sz>= 0.0000 <S**2>=-0.0000 S=-0.0000
 <L.S>= 0.000000000000E+00
 Annihilation of the first spin contaminant:
 S**2 before annihilation    -0.0000,   after     0.0000

 **********************************************************************

            Population analysis using the SCF density.

 **********************************************************************

 Orbital symmetries:
 Alpha Orbitals:
       Occupied  (A) (A) (A) (A) (A) (A) (A) (A) (A) (A) (A) (A)
       Virtual   (A) (A) (A) (A) (A) (A) (A) (A) (A) (A) (A) (A)
                 (A) (A) (A) (A) (A) (A) (A) (A) (A) (A) (A) (A)
                 (A) (A) (A) (A) (A) (A) (A) (A) (A) (A) (A) (A)
                 (A) (A) (A) (A) (A) (A) (A) (A) (A) (A) (A) (A)
                 (A) (A) (A) (A) (A) (A) (A) (A) (A)
 Beta  Orbitals:
       Occupied  (A) (A) (A) (A) (A) (A) (A) (A) (A) (A) (A) (A)
       Virtual   (A) (A) (A) (A) (A) (A) (A) (A) (A) (A) (A) (A)
                 (A) (A) (A) (A) (A) (A) (A) (A) (A) (A) (A) (A)
                 (A) (A) (A) (A) (A) (A) (A) (A) (A) (A) (A) (A)
                 (A) (A) (A) (A) (A) (A) (A) (A) (A) (A) (A) (A)
                 (A) (A) (A) (A) (A) (A) (A) (A) (A)
 The electronic state is 1-A.
 Alpha  occ. eigenvalues --  -10.19630 -10.18797 -10.18043  -0.79158  -0.67942
 Alpha  occ. eigenvalues --   -0.55601  -0.47455  -0.41992  -0.41087  -0.38046
 Alpha  occ. eigenvalues --   -0.34839  -0.25375
 Alpha virt. eigenvalues --   -0.00477   0.01707   0.03266   0.03391   0.05959
 Alpha virt. eigenvalues --    0.06467   0.07665   0.09284   0.09506   0.11671
 Alpha virt. eigenvalues --    0.12687   0.13049   0.16432   0.19980   0.20751
 Alpha virt. eigenvalues --    0.22281   0.24987   0.26700   0.30722   0.35051
 Alpha virt. eigenvalues --    0.37543   0.59589   0.63863   0.66474   0.68906
 Alpha virt. eigenvalues --    0.69914   0.73588   0.77579   0.79109   0.88371
 Alpha virt. eigenvalues --    0.92393   0.94498   0.97043   1.01628   1.03665
 Alpha virt. eigenvalues --    1.09017   1.18135   1.25126   1.31694   1.41395
 Alpha virt. eigenvalues --    1.47758   1.70307   1.79736   1.88229   1.99670
 Alpha virt. eigenvalues --    2.13737   2.16659   2.22032   2.23788   2.25200
 Alpha virt. eigenvalues --    2.43195   2.55891   2.76556   2.80810   4.19016
 Alpha virt. eigenvalues --    4.22047   4.41553
  Beta  occ. eigenvalues --  -10.19630 -10.18797 -10.18043  -0.79158  -0.67942
  Beta  occ. eigenvalues --   -0.55601  -0.47455  -0.41992  -0.41087  -0.38046
  Beta  occ. eigenvalues --   -0.34839  -0.25375
  Beta virt. eigenvalues --   -0.00477   0.01707   0.03266   0.03391   0.05959
  Beta virt. eigenvalues --    0.06467   0.07665   0.09284   0.09506   0.11671
  Beta virt. eigenvalues --    0.12687   0.13049   0.16432   0.19980   0.20751
  Beta virt. eigenvalues --    0.22281   0.24987   0.26700   0.30722   0.35051
  Beta virt. eigenvalues --    0.37543   0.59589   0.63863   0.66474   0.68906
  Beta virt. eigenvalues --    0.69914   0.73588   0.77579   0.79109   0.88371
  Beta virt. eigenvalues --    0.92393   0.94498   0.97043   1.01628   1.03665
  Beta virt. eigenvalues --    1.09017   1.18135   1.25126   1.31694   1.41395
  Beta virt. eigenvalues --    1.47758   1.70307   1.79736   1.88229   1.99670
  Beta virt. eigenvalues --    2.13737   2.16659   2.22032   2.23788   2.25200
  Beta virt. eigenvalues --    2.43195   2.55891   2.76556   2.80810   4.19016
  Beta virt. eigenvalues --    4.22047   4.41553
          Condensed to atoms (all electrons):
               1          2          3          4          5          6
     1  C    5.535416   0.138392  -0.029565   0.404052   0.423503   0.394706
     2  C    0.138392   5.105243   0.607285  -0.059264  -0.075489  -0.055884
     3  C   -0.029565   0.607285   5.116214  -0.010048  -0.023650   0.012415
     4  H    0.404052  -0.059264  -0.010048   0.495484  -0.030067  -0.022305
     5  H    0.423503  -0.075489  -0.023650  -0.030067   0.504793  -0.021707
     6  H    0.394706  -0.055884   0.012415  -0.022305  -0.021707   0.495440
     7  H   -0.031034   0.330853  -0.002770   0.002627   0.003078  -0.003364
     8  H    0.004808  -0.099069   0.418149   0.001477   0.001350   0.000355
     9  H    0.004207  -0.033069   0.381037   0.000043  -0.000029  -0.000152
               7          8          9
     1  C   -0.031034   0.004808   0.004207
     2  C    0.330853  -0.099069  -0.033069
     3  C   -0.002770   0.418149   0.381037
     4  H    0.002627   0.001477   0.000043
     5  H    0.003078   0.001350  -0.000029
     6  H   -0.003364   0.000355  -0.000152
     7  H    0.520629   0.004805  -0.005147
     8  H    0.004805   0.527354  -0.030228
     9  H   -0.005147  -0.030228   0.498824
          Atomic-Atomic Spin Densities.
               1          2          3          4          5          6
     1  C   -0.000000   0.000000  -0.000000   0.000000   0.000000   0.000000
     2  C    0.000000  -0.000000  -0.000000   0.000000   0.000000  -0.000000
     3  C   -0.000000  -0.000000   0.000000  -0.000000  -0.000000   0.000000
     4  H    0.000000   0.000000  -0.000000   0.000000   0.000000   0.000000
     5  H    0.000000   0.000000  -0.000000   0.000000   0.000000   0.000000
     6  H    0.000000  -0.000000   0.000000   0.000000   0.000000  -0.000000
     7  H   -0.000000   0.000000  -0.000000   0.000000   0.000000   0.000000
     8  H    0.000000   0.000000  -0.000000   0.000000  -0.000000  -0.000000
     9  H   -0.000000  -0.000000   0.000000   0.000000  -0.000000   0.000000
               7          8          9
     1  C   -0.000000   0.000000  -0.000000
     2  C    0.000000   0.000000  -0.000000
     3  C   -0.000000  -0.000000   0.000000
     4  H    0.000000   0.000000   0.000000
     5  H    0.000000  -0.000000  -0.000000
     6  H    0.000000  -0.000000   0.000000
     7  H    0.000000  -0.000000  -0.000000
     8  H   -0.000000  -0.000000  -0.000000
     9  H   -0.000000  -0.000000  -0.000000
 Mulliken charges and spin densities:
               1          2
     1  C   -0.844485  -0.000000
     2  C    0.141001  -0.000000
     3  C   -0.469065   0.000000
     4  H    0.218002   0.000000
     5  H    0.218219   0.000000
     6  H    0.200496  -0.000000
     7  H    0.180322   0.000000
     8  H    0.170999  -0.000000
     9  H    0.184513  -0.000000
 Sum of Mulliken charges =  -0.00000  -0.00000
 Mulliken charges and spin densities with hydrogens summed into heavy atoms:
               1          2
     1  C   -0.207769  -0.000000
     2  C    0.321323  -0.000000
     3  C   -0.113554   0.000000
 Electronic spatial extent (au):  <R**2>=            192.1046
 Charge=             -0.0000 electrons
 Dipole moment (field-independent basis, Debye):
    X=              0.3759    Y=              0.0422    Z=              0.0929  Tot=              0.3895
 Quadrupole moment (field-independent basis, Debye-Ang):
   XX=            -20.0602   YY=            -19.1995   ZZ=            -22.2774
   XY=              0.2133   XZ=             -0.2147   YZ=              0.1041
 Traceless Quadrupole moment (field-independent basis, Debye-Ang):
   XX=              0.4522   YY=              1.3128   ZZ=             -1.7651
   XY=              0.2133   XZ=             -0.2147   YZ=              0.1041
 Octapole moment (field-independent basis, Debye-Ang**2):
  XXX=             -2.1611  YYY=              1.0005  ZZZ=              0.3836  XYY=              0.2066
  XXY=              1.9290  XXZ=             -0.2018  XZZ=              2.3697  YZZ=             -0.9929
  YYZ=             -0.0307  XYZ=              0.1419
 Hexadecapole moment (field-independent basis, Debye-Ang**3):
 XXXX=           -174.5517 YYYY=            -58.9366 ZZZZ=            -35.7061 XXXY=              1.3357
 XXXZ=             -1.2295 YYYX=              0.6132 YYYZ=              0.5009 ZZZX=             -0.2475
 ZZZY=              0.0481 XXYY=            -40.8022 XXZZ=            -39.2478 YYZZ=            -16.4700
 XXYZ=              0.2734 YYXZ=             -0.4520 ZZXY=             -0.5651
 N-N= 7.095904044388D+01 E-N=-4.138758556948D+02  KE= 1.166524428558D+02
                          Isotropic Fermi Contact Couplings
        Atom                 a.u.       MegaHertz       Gauss      10(-4) cm-1
     1  C(13)             -0.00000      -0.00000      -0.00000      -0.00000
     2  C(13)             -0.00000      -0.00000      -0.00000      -0.00000
     3  C(13)             -0.00000      -0.00000      -0.00000      -0.00000
     4  H(1)               0.00000       0.00000       0.00000       0.00000
     5  H(1)               0.00000       0.00000       0.00000       0.00000
     6  H(1)              -0.00000      -0.00000      -0.00000      -0.00000
     7  H(1)               0.00000       0.00000       0.00000       0.00000
     8  H(1)               0.00000       0.00000       0.00000       0.00000
     9  H(1)              -0.00000      -0.00000      -0.00000      -0.00000
 --------------------------------------------------------
       Center         ----  Spin Dipole Couplings  ----
                      3XX-RR        3YY-RR        3ZZ-RR
 --------------------------------------------------------
     1   Atom        0.000000      0.000000      0.000000
     2   Atom        0.000000      0.000000      0.000000
     3   Atom        0.000000      0.000000      0.000000
     4   Atom        0.000000      0.000000      0.000000
     5   Atom        0.000000      0.000000      0.000000
     6   Atom        0.000000      0.000000      0.000000
     7   Atom        0.000000      0.000000      0.000000
     8   Atom        0.000000      0.000000      0.000000
     9   Atom        0.000000      0.000000      0.000000
 --------------------------------------------------------
                        XY            XZ            YZ
 --------------------------------------------------------
     1   Atom        0.000000      0.000000      0.000000
     2   Atom        0.000000      0.000000      0.000000
     3   Atom        0.000000      0.000000      0.000000
     4   Atom        0.000000      0.000000      0.000000
     5   Atom        0.000000      0.000000      0.000000
     6   Atom        0.000000      0.000000      0.000000
     7   Atom        0.000000      0.000000      0.000000
     8   Atom        0.000000      0.000000      0.000000
     9   Atom        0.000000      0.000000      0.000000
 --------------------------------------------------------


 ---------------------------------------------------------------------------------
              Anisotropic Spin Dipole Couplings in Principal Axis System
 ---------------------------------------------------------------------------------

       Atom             a.u.   MegaHertz   Gauss  10(-4) cm-1        Axes

              Baa     0.0000     0.000     0.000     0.000  1.0000  0.0000  0.0000
     1 C(13)  Bbb     0.0000     0.000     0.000     0.000 -0.0000  1.0000  0.0000
              Bcc     0.0000     0.000     0.000     0.000  0.0000  0.0000  1.0000
 
              Baa     0.0000     0.000     0.000     0.000  1.0000  0.0000  0.0000
     2 C(13)  Bbb     0.0000     0.000     0.000     0.000 -0.0000  1.0000  0.0000
              Bcc     0.0000     0.000     0.000     0.000  0.0000  0.0000  1.0000
 
              Baa     0.0000     0.000     0.000     0.000  1.0000  0.0000  0.0000
     3 C(13)  Bbb     0.0000     0.000     0.000     0.000 -0.0000  1.0000  0.0000
              Bcc     0.0000     0.000     0.000     0.000  0.0000  0.0000  1.0000
 
              Baa     0.0000     0.000     0.000     0.000  1.0000  0.0000  0.0000
     4 H(1)   Bbb     0.0000     0.000     0.000     0.000 -0.0000  1.0000  0.0000
              Bcc     0.0000     0.000     0.000     0.000  0.0000  0.0000  1.0000
 
              Baa     0.0000     0.000     0.000     0.000  1.0000  0.0000  0.0000
     5 H(1)   Bbb     0.0000     0.000     0.000     0.000 -0.0000  1.0000  0.0000
              Bcc     0.0000     0.000     0.000     0.000  0.0000  0.0000  1.0000
 
              Baa     0.0000     0.000     0.000     0.000  1.0000  0.0000  0.0000
     6 H(1)   Bbb     0.0000     0.000     0.000     0.000 -0.0000  1.0000  0.0000
              Bcc     0.0000     0.000     0.000     0.000  0.0000  0.0000  1.0000
 
              Baa     0.0000     0.000     0.000     0.000  1.0000  0.0000  0.0000
     7 H(1)   Bbb     0.0000     0.000     0.000     0.000 -0.0000  1.0000  0.0000
              Bcc     0.0000     0.000     0.000     0.000  0.0000  0.0000  1.0000
 
              Baa     0.0000     0.000     0.000     0.000  1.0000  0.0000  0.0000
     8 H(1)   Bbb     0.0000     0.000     0.000     0.000 -0.0000  1.0000  0.0000
              Bcc     0.0000     0.000     0.000     0.000  0.0000  0.0000  1.0000
 
              Baa     0.0000     0.000     0.000     0.000  1.0000  0.0000  0.0000
     9 H(1)   Bbb     0.0000     0.000     0.000     0.000 -0.0000  1.0000  0.0000
              Bcc     0.0000     0.000     0.000     0.000  0.0000  0.0000  1.0000
 

 ---------------------------------------------------------------------------------

 1\1\GINC-NODE31\SP\UB3LYP\6-31+G(d)\C3H6\YANZ\12-Oct-2023\0\\# ub3lyp/
 6-31+g(d)\\tmpdir/M3_conf_0_31.gjf\\0,1\C,0,0.,0.,0.\C,0,1.5278,0.,0.\
 C,0,2.13361,0.,1.19154\H,0,-0.34003,0.83609,0.62525\H,0,-0.19334,-0.94
 292,0.54637\H,0,-0.42584,0.01685,-1.00551\H,0,2.08758,-0.06567,-0.9274
 7\H,0,1.449,0.01449,2.05228\H,0,3.2089,-0.03507,1.32815\\Version=ES64L
 -G16RevA.03\State=1-A\HF=-117.9021553\S2=0.\S2-1=0.\S2A=0.\RMSD=2.072e
 -09\Dipole=-0.12417,-0.0365634,-0.0820204\Quadrupole=0.3370984,-1.3066
 246,0.9695262,-0.202003,-0.1657907,0.0426198\PG=C01 [X(C3H6)]\\@


 IT IS BETTER TO THINK YOU ARE HALF DRY THAN TO KNOW YOU
 ARE ALL WET.  -- SNOOPY
 Job cpu time:       0 days  0 hours  0 minutes 33.2 seconds.
 Elapsed time:       0 days  0 hours  0 minutes  8.7 seconds.
 File lengths (MBytes):  RWF=      6 Int=      0 D2E=      0 Chk=      1 Scr=      1
 Normal termination of Gaussian 16 at Thu Oct 12 15:29:54 2023.
