 Entering Gaussian System, Link 0=g16
 Initial command:
 /share/apps/gaussian/g16/l1.exe "/tmp/58287.mgr/Gau-22794.inp" -scrdir="/tmp/58287.mgr/"
 Entering Link 1 = /share/apps/gaussian/g16/l1.exe PID=     22795.
  
 Copyright (c) 1988,1990,1992,1993,1995,1998,2003,2009,2016,
            Gaussian, Inc.  All Rights Reserved.
  
 This is part of the Gaussian(R) 16 program.  It is based on
 the Gaussian(R) 09 system (copyright 2009, Gaussian, Inc.),
 the Gaussian(R) 03 system (copyright 2003, Gaussian, Inc.),
 the Gaussian(R) 98 system (copyright 1998, Gaussian, Inc.),
 the Gaussian(R) 94 system (copyright 1995, Gaussian, Inc.),
 the Gaussian 92(TM) system (copyright 1992, Gaussian, Inc.),
 the Gaussian 90(TM) system (copyright 1990, Gaussian, Inc.),
 the Gaussian 88(TM) system (copyright 1988, Gaussian, Inc.),
 the Gaussian 86(TM) system (copyright 1986, Carnegie Mellon
 University), and the Gaussian 82(TM) system (copyright 1983,
 Carnegie Mellon University). Gaussian is a federally registered
 trademark of Gaussian, Inc.
  
 This software contains proprietary and confidential information,
 including trade secrets, belonging to Gaussian, Inc.
  
 This software is provided under written license and may be
 used, copied, transmitted, or stored only in accord with that
 written license.
  
 The following legend is applicable only to US Government
 contracts under FAR:
  
                    RESTRICTED RIGHTS LEGEND
  
 Use, reproduction and disclosure by the US Government is
 subject to restrictions as set forth in subparagraphs (a)
 and (c) of the Commercial Computer Software - Restricted
 Rights clause in FAR 52.227-19.
  
 Gaussian, Inc.
 340 Quinnipiac St., Bldg. 40, Wallingford CT 06492
  
  
 ---------------------------------------------------------------
 Warning -- This program may not be used in any manner that
 competes with the business of Gaussian, Inc. or will provide
 assistance to any competitor of Gaussian, Inc.  The licensee
 of this program is prohibited from giving any competitor of
 Gaussian, Inc. access to this program.  By using this program,
 the user acknowledges that Gaussian, Inc. is engaged in the
 business of creating and licensing software in the field of
 computational chemistry and represents and warrants to the
 licensee that it is not a competitor of Gaussian, Inc. and that
 it will not use this program in any manner prohibited above.
 ---------------------------------------------------------------
  

 Cite this work as:
 Gaussian 16, Revision A.03,
 M. J. Frisch, G. W. Trucks, H. B. Schlegel, G. E. Scuseria, 
 M. A. Robb, J. R. Cheeseman, G. Scalmani, V. Barone, 
 G. A. Petersson, H. Nakatsuji, X. Li, M. Caricato, A. V. Marenich, 
 J. Bloino, B. G. Janesko, R. Gomperts, B. Mennucci, H. P. Hratchian, 
 J. V. Ortiz, A. F. Izmaylov, J. L. Sonnenberg, D. Williams-Young, 
 F. Ding, F. Lipparini, F. Egidi, J. Goings, B. Peng, A. Petrone, 
 T. Henderson, D. Ranasinghe, V. G. Zakrzewski, J. Gao, N. Rega, 
 G. Zheng, W. Liang, M. Hada, M. Ehara, K. Toyota, R. Fukuda, 
 J. Hasegawa, M. Ishida, T. Nakajima, Y. Honda, O. Kitao, H. Nakai, 
 T. Vreven, K. Throssell, J. A. Montgomery, Jr., J. E. Peralta, 
 F. Ogliaro, M. J. Bearpark, J. J. Heyd, E. N. Brothers, K. N. Kudin, 
 V. N. Staroverov, T. A. Keith, R. Kobayashi, J. Normand, 
 K. Raghavachari, A. P. Rendell, J. C. Burant, S. S. Iyengar, 
 J. Tomasi, M. Cossi, J. M. Millam, M. Klene, C. Adamo, R. Cammi, 
 J. W. Ochterski, R. L. Martin, K. Morokuma, O. Farkas, 
 J. B. Foresman, and D. J. Fox, Gaussian, Inc., Wallingford CT, 2016.
 
 ******************************************
 Gaussian 16:  ES64L-G16RevA.03 25-Dec-2016
                12-Oct-2023 
 ******************************************
 %nprocshared=4
 Will use up to    4 processors via shared memory.
 %mem=4GB
 ------------------
 # ub3lyp/6-31+g(d)
 ------------------
 1/38=1,172=1/1;
 2/12=2,17=6,18=5,40=1/2;
 3/5=1,6=6,7=11,11=2,25=1,30=1,74=-5,116=2/1,2,3;
 4//1;
 5/5=2,38=5/2;
 6/7=2,8=2,9=2,10=2,28=1/1;
 99/5=1,9=1/99;
 -----------------------
 tmpdir/M3_conf_0_28.gjf
 -----------------------
 Symbolic Z-matrix:
 Charge =  0 Multiplicity = 3
 C                     0.        0.        0. 
 C                     1.4891    0.        0. 
 H                     2.07288   0.        0.92096 
 H                    -0.38689   0.88341  -0.54305 
 H                    -0.53435  -0.93384  -0.18203 
 H                     1.88174   0.68046  -0.77948 
 
                          Input orientation:                          
 ---------------------------------------------------------------------
 Center     Atomic      Atomic             Coordinates (Angstroms)
 Number     Number       Type             X           Y           Z
 ---------------------------------------------------------------------
      1          6           0        0.000000    0.000000    0.000000
      2          6           0        1.489100    0.000000    0.000000
      3          1           0        2.072880    0.000000    0.920960
      4          1           0       -0.386890    0.883410   -0.543050
      5          1           0       -0.534350   -0.933840   -0.182030
      6          1           0        1.881740    0.680460   -0.779480
 ---------------------------------------------------------------------
                    Distance matrix (angstroms):
                    1          2          3          4          5
     1  C    0.000000
     2  C    1.489100   0.000000
     3  H    2.268259   1.090397   0.000000
     4  H    1.106797   2.143515   2.995698   0.000000
     5  H    1.091202   2.235966   2.980988   1.858622   0.000000
     6  H    2.147454   1.106698   1.841482   2.289928   2.966547
                    6
     6  H    0.000000
 Stoichiometry    C2H4(3)
 Framework group  C1[X(C2H4)]
 Deg. of freedom    12
 Full point group                 C1      NOp   1
 Largest Abelian subgroup         C1      NOp   1
 Largest concise Abelian subgroup C1      NOp   1
                         Standard orientation:                         
 ---------------------------------------------------------------------
 Center     Atomic      Atomic             Coordinates (Angstroms)
 Number     Number       Type             X           Y           Z
 ---------------------------------------------------------------------
      1          6           0        0.741274   -0.053844   -0.099982
      2          6           0       -0.735322   -0.053307    0.092587
      3          1           0       -1.406565   -0.636464   -0.538544
      4          1           0        1.107260    0.973582   -0.288264
      5          1           0        1.365631   -0.661334    0.557176
      6          1           0       -1.102040    0.967122    0.314001
 ---------------------------------------------------------------------
 Rotational constants (GHZ):         133.9272351          24.7415996          22.7081192
 Standard basis: 6-31+G(d) (6D, 7F)
 There are    46 symmetry adapted cartesian basis functions of A   symmetry.
 There are    46 symmetry adapted basis functions of A   symmetry.
    46 basis functions,    80 primitive gaussians,    46 cartesian basis functions
     9 alpha electrons        7 beta electrons
       nuclear repulsion energy        31.4676517442 Hartrees.
 NAtoms=    6 NActive=    6 NUniq=    6 SFac= 1.00D+00 NAtFMM=   60 NAOKFM=F Big=F
 Integral buffers will be    131072 words long.
 Raffenetti 2 integral format.
 Two-electron integral symmetry is turned on.
 One-electron integrals computed using PRISM.
 NBasis=    46 RedAO= T EigKep=  4.03D-04  NBF=    46
 NBsUse=    46 1.00D-06 EigRej= -1.00D+00 NBFU=    46
 ExpMin= 4.38D-02 ExpMax= 3.05D+03 ExpMxC= 4.57D+02 IAcc=3 IRadAn=         5 AccDes= 0.00D+00
 Harris functional with IExCor=  402 and IRadAn=       5 diagonalized for initial guess.
 HarFok:  IExCor=  402 AccDes= 0.00D+00 IRadAn=         5 IDoV= 1 UseB2=F ITyADJ=14
 ICtDFT=  3500011 ScaDFX=  1.000000  1.000000  1.000000  1.000000
 FoFCou: FMM=F IPFlag=           0 FMFlag=      100000 FMFlg1=           0
         NFxFlg=           0 DoJE=T BraDBF=F KetDBF=T FulRan=T
         wScrn=  0.000000 ICntrl=       500 IOpCl=  0 I1Cent=   200000004 NGrid=           0
         NMat0=    1 NMatS0=      1 NMatT0=    0 NMatD0=    1 NMtDS0=    0 NMtDT0=    0
 Petite list used in FoFCou.
 Initial guess <Sx>= 0.0000 <Sy>= 0.0000 <Sz>= 1.0000 <S**2>= 2.0000 S= 1.0000
 Keep R1 and R2 ints in memory in canonical form, NReq=4639192.
 Requested convergence on RMS density matrix=1.00D-08 within 128 cycles.
 Requested convergence on MAX density matrix=1.00D-06.
 Requested convergence on             energy=1.00D-06.
 No special actions if energy rises.
 SCF Done:  E(UB3LYP) =  -78.4733572189     A.U. after   11 cycles
            NFock= 11  Conv=0.10D-07     -V/T= 2.0107
 <Sx>= 0.0000 <Sy>= 0.0000 <Sz>= 1.0000 <S**2>= 2.0038 S= 1.0013
 <L.S>= 0.000000000000E+00
 Annihilation of the first spin contaminant:
 S**2 before annihilation     2.0038,   after     2.0000

 **********************************************************************

            Population analysis using the SCF density.

 **********************************************************************

 Orbital symmetries:
 Alpha Orbitals:
       Occupied  (A) (A) (A) (A) (A) (A) (A) (A) (A)
       Virtual   (A) (A) (A) (A) (A) (A) (A) (A) (A) (A) (A) (A)
                 (A) (A) (A) (A) (A) (A) (A) (A) (A) (A) (A) (A)
                 (A) (A) (A) (A) (A) (A) (A) (A) (A) (A) (A) (A)
                 (A)
 Beta  Orbitals:
       Occupied  (A) (A) (A) (A) (A) (A) (A)
       Virtual   (A) (A) (A) (A) (A) (A) (A) (A) (A) (A) (A) (A)
                 (A) (A) (A) (A) (A) (A) (A) (A) (A) (A) (A) (A)
                 (A) (A) (A) (A) (A) (A) (A) (A) (A) (A) (A) (A)
                 (A) (A) (A)
 The electronic state is 3-A.
 Alpha  occ. eigenvalues --  -10.21442 -10.21319  -0.76527  -0.60840  -0.45905
 Alpha  occ. eigenvalues --   -0.41105  -0.40576  -0.27660  -0.19104
 Alpha virt. eigenvalues --    0.02028   0.03026   0.05145   0.06056   0.08497
 Alpha virt. eigenvalues --    0.09152   0.10032   0.15133   0.17362   0.19549
 Alpha virt. eigenvalues --    0.24560   0.26016   0.28191   0.61756   0.64777
 Alpha virt. eigenvalues --    0.64883   0.67797   0.69646   0.73853   0.85159
 Alpha virt. eigenvalues --    0.89086   0.94858   0.99248   1.00124   1.12685
 Alpha virt. eigenvalues --    1.47947   1.49997   1.83426   1.88326   1.97615
 Alpha virt. eigenvalues --    2.03924   2.06492   2.34789   2.38428   2.60409
 Alpha virt. eigenvalues --    4.05158   4.24736
  Beta  occ. eigenvalues --  -10.20075 -10.19953  -0.72310  -0.57244  -0.43923
  Beta  occ. eigenvalues --   -0.38871  -0.38693
  Beta virt. eigenvalues --   -0.11686  -0.03329   0.02513   0.03342   0.05421
  Beta virt. eigenvalues --    0.06818   0.08551   0.09981   0.12043   0.15715
  Beta virt. eigenvalues --    0.18934   0.21579   0.25936   0.27774   0.30736
  Beta virt. eigenvalues --    0.62980   0.67454   0.68708   0.71583   0.74860
  Beta virt. eigenvalues --    0.76014   0.87221   0.90159   0.96750   1.01155
  Beta virt. eigenvalues --    1.01876   1.15799   1.53467   1.55570   1.90969
  Beta virt. eigenvalues --    1.94874   2.02556   2.06284   2.11988   2.39325
  Beta virt. eigenvalues --    2.41223   2.63413   4.08664   4.28500
          Condensed to atoms (all electrons):
               1          2          3          4          5          6
     1  C    5.493991   0.223126  -0.046614   0.378975   0.379554  -0.044587
     2  C    0.223126   5.510934   0.375174  -0.048162  -0.054325   0.374398
     3  H   -0.046614   0.375174   0.504325   0.002478   0.001414  -0.034945
     4  H    0.378975  -0.048162   0.002478   0.520204  -0.033650  -0.005441
     5  H    0.379554  -0.054325   0.001414  -0.033650   0.506982   0.002506
     6  H   -0.044587   0.374398  -0.034945  -0.005441   0.002506   0.523760
          Atomic-Atomic Spin Densities.
               1          2          3          4          5          6
     1  C    1.274528  -0.221687  -0.019736   0.022012  -0.003840  -0.032787
     2  C   -0.221687   1.284217  -0.005744  -0.030982  -0.023013   0.023558
     3  H   -0.019736  -0.005744   0.020209  -0.000084   0.001391  -0.008162
     4  H    0.022012  -0.030982  -0.000084   0.007222  -0.007603  -0.002004
     5  H   -0.003840  -0.023013   0.001391  -0.007603   0.022520  -0.000142
     6  H   -0.032787   0.023558  -0.008162  -0.002004  -0.000142   0.008948
 Mulliken charges and spin densities:
               1          2
     1  C   -0.384445   1.018490
     2  C   -0.381146   1.026349
     3  H    0.198168  -0.012125
     4  H    0.185596  -0.011438
     5  H    0.197518  -0.010686
     6  H    0.184309  -0.010589
 Sum of Mulliken charges =  -0.00000   2.00000
 Mulliken charges and spin densities with hydrogens summed into heavy atoms:
               1          2
     1  C   -0.001331   0.996366
     2  C    0.001331   1.003634
 Electronic spatial extent (au):  <R**2>=             90.7020
 Charge=             -0.0000 electrons
 Dipole moment (field-independent basis, Debye):
    X=             -0.0158    Y=              0.5574    Z=              0.0281  Tot=              0.5583
 Quadrupole moment (field-independent basis, Debye-Ang):
   XX=            -14.0710   YY=            -13.2694   ZZ=            -15.5065
   XY=              0.0190   XZ=              1.4099   YZ=             -0.0097
 Traceless Quadrupole moment (field-independent basis, Debye-Ang):
   XX=              0.2113   YY=              1.0129   ZZ=             -1.2242
   XY=              0.0190   XZ=              1.4099   YZ=             -0.0097
 Octapole moment (field-independent basis, Debye-Ang**2):
  XXX=             -0.2692  YYY=              1.9511  ZZZ=              0.0592  XYY=              0.0633
  XXY=              0.1424  XXZ=              0.0090  XZZ=              0.0109  YZZ=              0.1726
  YYZ=              0.0474  XYZ=             -1.5381
 Hexadecapole moment (field-independent basis, Debye-Ang**3):
 XXXX=            -84.9185 YYYY=            -27.9774 ZZZZ=            -25.9312 XXXY=              0.1612
 XXXZ=              4.5689 YYYX=              0.0257 YYYZ=             -0.0133 ZZZX=              3.1504
 ZZZY=             -0.0211 XXYY=            -17.4471 XXZZ=            -19.8467 YYZZ=             -9.0063
 XXYZ=              0.0222 YYXZ=              1.0025 ZZXY=             -0.0238
 N-N= 3.146765174415D+01 E-N=-2.439443126598D+02  KE= 7.764119388204D+01
                          Isotropic Fermi Contact Couplings
        Atom                 a.u.       MegaHertz       Gauss      10(-4) cm-1
     1  C(13)              0.17818     100.15188      35.73668      33.40707
     2  C(13)              0.16972      95.39740      34.04017      31.82115
     3  H(1)               0.00619      13.84387       4.93984       4.61782
     4  H(1)               0.00723      16.15802       5.76558       5.38973
     5  H(1)               0.00760      16.98100       6.05924       5.66425
     6  H(1)               0.00759      16.97338       6.05652       5.66171
 --------------------------------------------------------
       Center         ----  Spin Dipole Couplings  ----
                      3XX-RR        3YY-RR        3ZZ-RR
 --------------------------------------------------------
     1   Atom       -0.472169     -0.174696      0.646865
     2   Atom       -0.480403     -0.159080      0.639483
     3   Atom        0.004232     -0.017380      0.013148
     4   Atom       -0.037086      0.056612     -0.019526
     5   Atom       -0.002029     -0.014383      0.016412
     6   Atom       -0.038395      0.056008     -0.017613
 --------------------------------------------------------
                        XY            XZ            YZ
 --------------------------------------------------------
     1   Atom       -0.085083     -0.182384      0.627470
     2   Atom        0.071387     -0.155051     -0.643471
     3   Atom        0.056227      0.046085      0.018287
     4   Atom        0.048898     -0.022085     -0.013559
     5   Atom       -0.055592      0.043638     -0.022714
     6   Atom       -0.048647     -0.022645      0.016081
 --------------------------------------------------------


 ---------------------------------------------------------------------------------
              Anisotropic Spin Dipole Couplings in Principal Axis System
 ---------------------------------------------------------------------------------

       Atom             a.u.   MegaHertz   Gauss  10(-4) cm-1        Axes

              Baa    -0.5205   -69.840   -24.921   -23.296 -0.4828  0.7377 -0.4720
     1 C(13)  Bbb    -0.4928   -66.126   -23.595   -22.057  0.8654  0.4844 -0.1282
              Bcc     1.0132   135.966    48.516    45.353 -0.1340  0.4703  0.8723
 
              Baa    -0.5240   -70.312   -25.089   -23.454  0.4676  0.7456  0.4747
     2 C(13)  Bbb    -0.4929   -66.137   -23.599   -22.061  0.8767 -0.4599 -0.1413
              Bcc     1.0168   136.450    48.689    45.515 -0.1130 -0.4822  0.8687
 
              Baa    -0.0676   -36.061   -12.868   -12.029  0.6888 -0.6847 -0.2381
     3 H(1)   Bbb    -0.0156    -8.325    -2.971    -2.777 -0.2740 -0.5500  0.7890
              Bcc     0.0832    44.387    15.838    14.806  0.6712  0.4782  0.5664
 
              Baa    -0.0635   -33.863   -12.083   -11.296  0.8824 -0.3204  0.3446
     4 H(1)   Bbb    -0.0185    -9.865    -3.520    -3.291 -0.2407  0.3220  0.9156
              Bcc     0.0820    43.728    15.603    14.586  0.4043  0.8909 -0.2070
 
              Baa    -0.0665   -35.478   -12.659   -11.834  0.7116  0.6767 -0.1892
     5 H(1)   Bbb    -0.0161    -8.589    -3.065    -2.865 -0.3042  0.5394  0.7852
              Bcc     0.0826    44.066    15.724    14.699  0.6333 -0.5012  0.5896
 
              Baa    -0.0640   -34.145   -12.184   -11.389  0.8909  0.3176  0.3248
     6 H(1)   Bbb    -0.0183    -9.749    -3.479    -3.252 -0.2136 -0.3383  0.9165
              Bcc     0.0823    43.894    15.662    14.641 -0.4010  0.8858  0.2335
 

 ---------------------------------------------------------------------------------

 1\1\GINC-NODE31\SP\UB3LYP\6-31+G(d)\C2H4(3)\YANZ\12-Oct-2023\0\\# ub3l
 yp/6-31+g(d)\\tmpdir/M3_conf_0_28.gjf\\0,3\C,0,0.,0.,0.\C,0,1.4891,0.,
 0.\H,0,2.07288,0.,0.92096\H,0,-0.38689,0.88341,-0.54305\H,0,-0.53435,-
 0.93384,-0.18203\H,0,1.88174,0.68046,-0.77948\\Version=ES64L-G16RevA.0
 3\State=3-A\HF=-78.4733572\S2=2.003844\S2-1=0.\S2A=2.000008\RMSD=9.988
 e-09\Dipole=0.0076593,0.1632453,-0.1467739\Quadrupole=-0.1296132,0.205
 571,-0.0759579,0.7171886,0.8991504,-0.6737161\PG=C01 [X(C2H4)]\\@


 I MET A TRAVELLER FROM AN ANTIQUE LAND
 WHO SAID... TWO VAST AND TRUNKLESS LEGS OF STONE
 STAND IN THE DESERT..... NEAR THEM,  ON THE SAND,
 HALF SUNK,  A SHATTERED VISAGE LIES,  WHOSE FROWN,
 AND WRINKLED LIP,  AND SNEER OF COLD COMMAND
 TELL THAT ITS SCULPTOR WELL THOSE PASSIONS READ
 WHICH YET SURVIVE,  STAMPED ON THESE LIFELESS THINGS
 THE HAND THAT MOCKED THEM,  AND THE HEART THAT FED-
 AND ON THE PEDESTAL THESE WORDS APPEAR 
 MY NAME IS OZYMANDIAS, KING OF KINGS--   
 LOOK ON MY WORKS YE MIGHTY AND DESPAIR. 
 NOTHING BESIDE REMAINS,  ROUND THE DECAY 
 OF THAT COLOSSAL WRECK,  BOUNDLESS AND BARE
 THE LONE AND LEVEL SANDS STRETCH FAR AWAY.
                                    SHELLEY
 Job cpu time:       0 days  0 hours  0 minutes 15.5 seconds.
 Elapsed time:       0 days  0 hours  0 minutes  4.0 seconds.
 File lengths (MBytes):  RWF=      6 Int=      0 D2E=      0 Chk=      1 Scr=      1
 Normal termination of Gaussian 16 at Thu Oct 12 15:29:51 2023.
