 Entering Gaussian System, Link 0=g16
 Initial command:
 /share/apps/gaussian/g16/l1.exe "/tmp/58287.mgr/Gau-21885.inp" -scrdir="/tmp/58287.mgr/"
 Entering Link 1 = /share/apps/gaussian/g16/l1.exe PID=     21886.
  
 Copyright (c) 1988,1990,1992,1993,1995,1998,2003,2009,2016,
            Gaussian, Inc.  All Rights Reserved.
  
 This is part of the Gaussian(R) 16 program.  It is based on
 the Gaussian(R) 09 system (copyright 2009, Gaussian, Inc.),
 the Gaussian(R) 03 system (copyright 2003, Gaussian, Inc.),
 the Gaussian(R) 98 system (copyright 1998, Gaussian, Inc.),
 the Gaussian(R) 94 system (copyright 1995, Gaussian, Inc.),
 the Gaussian 92(TM) system (copyright 1992, Gaussian, Inc.),
 the Gaussian 90(TM) system (copyright 1990, Gaussian, Inc.),
 the Gaussian 88(TM) system (copyright 1988, Gaussian, Inc.),
 the Gaussian 86(TM) system (copyright 1986, Carnegie Mellon
 University), and the Gaussian 82(TM) system (copyright 1983,
 Carnegie Mellon University). Gaussian is a federally registered
 trademark of Gaussian, Inc.
  
 This software contains proprietary and confidential information,
 including trade secrets, belonging to Gaussian, Inc.
  
 This software is provided under written license and may be
 used, copied, transmitted, or stored only in accord with that
 written license.
  
 The following legend is applicable only to US Government
 contracts under FAR:
  
                    RESTRICTED RIGHTS LEGEND
  
 Use, reproduction and disclosure by the US Government is
 subject to restrictions as set forth in subparagraphs (a)
 and (c) of the Commercial Computer Software - Restricted
 Rights clause in FAR 52.227-19.
  
 Gaussian, Inc.
 340 Quinnipiac St., Bldg. 40, Wallingford CT 06492
  
  
 ---------------------------------------------------------------
 Warning -- This program may not be used in any manner that
 competes with the business of Gaussian, Inc. or will provide
 assistance to any competitor of Gaussian, Inc.  The licensee
 of this program is prohibited from giving any competitor of
 Gaussian, Inc. access to this program.  By using this program,
 the user acknowledges that Gaussian, Inc. is engaged in the
 business of creating and licensing software in the field of
 computational chemistry and represents and warrants to the
 licensee that it is not a competitor of Gaussian, Inc. and that
 it will not use this program in any manner prohibited above.
 ---------------------------------------------------------------
  

 Cite this work as:
 Gaussian 16, Revision A.03,
 M. J. Frisch, G. W. Trucks, H. B. Schlegel, G. E. Scuseria, 
 M. A. Robb, J. R. Cheeseman, G. Scalmani, V. Barone, 
 G. A. Petersson, H. Nakatsuji, X. Li, M. Caricato, A. V. Marenich, 
 J. Bloino, B. G. Janesko, R. Gomperts, B. Mennucci, H. P. Hratchian, 
 J. V. Ortiz, A. F. Izmaylov, J. L. Sonnenberg, D. Williams-Young, 
 F. Ding, F. Lipparini, F. Egidi, J. Goings, B. Peng, A. Petrone, 
 T. Henderson, D. Ranasinghe, V. G. Zakrzewski, J. Gao, N. Rega, 
 G. Zheng, W. Liang, M. Hada, M. Ehara, K. Toyota, R. Fukuda, 
 J. Hasegawa, M. Ishida, T. Nakajima, Y. Honda, O. Kitao, H. Nakai, 
 T. Vreven, K. Throssell, J. A. Montgomery, Jr., J. E. Peralta, 
 F. Ogliaro, M. J. Bearpark, J. J. Heyd, E. N. Brothers, K. N. Kudin, 
 V. N. Staroverov, T. A. Keith, R. Kobayashi, J. Normand, 
 K. Raghavachari, A. P. Rendell, J. C. Burant, S. S. Iyengar, 
 J. Tomasi, M. Cossi, J. M. Millam, M. Klene, C. Adamo, R. Cammi, 
 J. W. Ochterski, R. L. Martin, K. Morokuma, O. Farkas, 
 J. B. Foresman, and D. J. Fox, Gaussian, Inc., Wallingford CT, 2016.
 
 ******************************************
 Gaussian 16:  ES64L-G16RevA.03 25-Dec-2016
                12-Oct-2023 
 ******************************************
 %nprocshared=4
 Will use up to    4 processors via shared memory.
 %mem=4GB
 ------------------
 # ub3lyp/6-31+g(d)
 ------------------
 1/38=1,172=1/1;
 2/12=2,17=6,18=5,40=1/2;
 3/5=1,6=6,7=11,11=2,25=1,30=1,74=-5,116=2/1,2,3;
 4//1;
 5/5=2,38=5/2;
 6/7=2,8=2,9=2,10=2,28=1/1;
 99/5=1,9=1/99;
 ----------------------
 tmpdir/M3_conf_0_4.gjf
 ----------------------
 Symbolic Z-matrix:
 Charge =  0 Multiplicity = 1
 C                     0.        0.        0. 
 C                     1.514     0.        0. 
 H                    -0.34036   0.       -1.05001 
 H                    -0.33205  -1.00301   0.32939 
 H                    -0.44044   0.81619   0.57704 
 O                     2.00361  -0.85026  -0.65266 
 H                     2.07677   0.72168   0.5819 
 
                          Input orientation:                          
 ---------------------------------------------------------------------
 Center     Atomic      Atomic             Coordinates (Angstroms)
 Number     Number       Type             X           Y           Z
 ---------------------------------------------------------------------
      1          6           0        0.000000    0.000000    0.000000
      2          6           0        1.514000    0.000000    0.000000
      3          1           0       -0.340360    0.000000   -1.050010
      4          1           0       -0.332050   -1.003010    0.329390
      5          1           0       -0.440440    0.816190    0.577040
      6          8           0        2.003610   -0.850260   -0.652660
      7          1           0        2.076770    0.721680    0.581900
 ---------------------------------------------------------------------
                    Distance matrix (angstroms):
                    1          2          3          4          5
     1  C    0.000000
     2  C    1.514000   0.000000
     3  H    1.103796   2.131003   0.000000
     4  H    1.106700   2.126600   1.705533   0.000000
     5  H    1.092304   2.195217   1.823040   1.839176   0.000000
     6  O    2.272303   1.178399   2.524881   2.538319   3.203529
     7  H    2.274292   1.084500   3.004408   2.973337   2.518988
                    6          7
     6  O    0.000000
     7  H    2.000122   0.000000
 Stoichiometry    C2H4O
 Framework group  C1[X(C2H4O)]
 Deg. of freedom    15
 Full point group                 C1      NOp   1
 Largest Abelian subgroup         C1      NOp   1
 Largest concise Abelian subgroup C1      NOp   1
                         Standard orientation:                         
 ---------------------------------------------------------------------
 Center     Atomic      Atomic             Coordinates (Angstroms)
 Number     Number       Type             X           Y           Z
 ---------------------------------------------------------------------
      1          6           0       -1.128695   -0.120455    0.000873
      2          6           0        0.265842    0.468995   -0.002680
      3          1           0       -1.194327   -0.844402   -0.829765
      4          1           0       -1.201760   -0.795195    0.875042
      5          1           0       -1.923302    0.627935   -0.039643
      6          8           0        1.134138   -0.327676   -0.001351
      7          1           0        0.423400    1.541826    0.016018
 ---------------------------------------------------------------------
 Rotational constants (GHZ):          50.0941127          11.3077857           9.7475929
 Standard basis: 6-31+G(d) (6D, 7F)
 There are    65 symmetry adapted cartesian basis functions of A   symmetry.
 There are    65 symmetry adapted basis functions of A   symmetry.
    65 basis functions,   112 primitive gaussians,    65 cartesian basis functions
    12 alpha electrons       12 beta electrons
       nuclear repulsion energy        70.9564741726 Hartrees.
 NAtoms=    7 NActive=    7 NUniq=    7 SFac= 1.00D+00 NAtFMM=   60 NAOKFM=F Big=F
 Integral buffers will be    131072 words long.
 Raffenetti 2 integral format.
 Two-electron integral symmetry is turned on.
 One-electron integrals computed using PRISM.
 NBasis=    65 RedAO= T EigKep=  3.20D-04  NBF=    65
 NBsUse=    65 1.00D-06 EigRej= -1.00D+00 NBFU=    65
 ExpMin= 4.38D-02 ExpMax= 5.48D+03 ExpMxC= 8.25D+02 IAcc=3 IRadAn=         5 AccDes= 0.00D+00
 Harris functional with IExCor=  402 and IRadAn=       5 diagonalized for initial guess.
 HarFok:  IExCor=  402 AccDes= 0.00D+00 IRadAn=         5 IDoV= 1 UseB2=F ITyADJ=14
 ICtDFT=  3500011 ScaDFX=  1.000000  1.000000  1.000000  1.000000
 FoFCou: FMM=F IPFlag=           0 FMFlag=      100000 FMFlg1=           0
         NFxFlg=           0 DoJE=T BraDBF=F KetDBF=T FulRan=T
         wScrn=  0.000000 ICntrl=       500 IOpCl=  0 I1Cent=   200000004 NGrid=           0
         NMat0=    1 NMatS0=      1 NMatT0=    0 NMatD0=    1 NMtDS0=    0 NMtDT0=    0
 Petite list used in FoFCou.
 Initial guess <Sx>= 0.0000 <Sy>= 0.0000 <Sz>= 0.0000 <S**2>=-0.0000 S=-0.0000
 Keep R1 and R2 ints in memory in canonical form, NReq=8155533.
 Requested convergence on RMS density matrix=1.00D-08 within 128 cycles.
 Requested convergence on MAX density matrix=1.00D-06.
 Requested convergence on             energy=1.00D-06.
 No special actions if energy rises.
 SCF Done:  E(UB3LYP) =  -153.829543038     A.U. after   11 cycles
            NFock= 11  Conv=0.20D-08     -V/T= 2.0084
 <Sx>= 0.0000 <Sy>= 0.0000 <Sz>= 0.0000 <S**2>=-0.0000 S=-0.0000
 <L.S>= 0.000000000000E+00
 Annihilation of the first spin contaminant:
 S**2 before annihilation    -0.0000,   after     0.0000

 **********************************************************************

            Population analysis using the SCF density.

 **********************************************************************

 Orbital symmetries:
 Alpha Orbitals:
       Occupied  (A) (A) (A) (A) (A) (A) (A) (A) (A) (A) (A) (A)
       Virtual   (A) (A) (A) (A) (A) (A) (A) (A) (A) (A) (A) (A)
                 (A) (A) (A) (A) (A) (A) (A) (A) (A) (A) (A) (A)
                 (A) (A) (A) (A) (A) (A) (A) (A) (A) (A) (A) (A)
                 (A) (A) (A) (A) (A) (A) (A) (A) (A) (A) (A) (A)
                 (A) (A) (A) (A) (A)
 Beta  Orbitals:
       Occupied  (A) (A) (A) (A) (A) (A) (A) (A) (A) (A) (A) (A)
       Virtual   (A) (A) (A) (A) (A) (A) (A) (A) (A) (A) (A) (A)
                 (A) (A) (A) (A) (A) (A) (A) (A) (A) (A) (A) (A)
                 (A) (A) (A) (A) (A) (A) (A) (A) (A) (A) (A) (A)
                 (A) (A) (A) (A) (A) (A) (A) (A) (A) (A) (A) (A)
                 (A) (A) (A) (A) (A)
 The electronic state is 1-A.
 Alpha  occ. eigenvalues --  -19.16229 -10.28660 -10.19918  -1.08045  -0.74960
 Alpha  occ. eigenvalues --   -0.59952  -0.49086  -0.44973  -0.44552  -0.41567
 Alpha  occ. eigenvalues --   -0.36905  -0.26571
 Alpha virt. eigenvalues --   -0.03898   0.01244   0.02392   0.04743   0.05072
 Alpha virt. eigenvalues --    0.07429   0.07680   0.09405   0.14227   0.16986
 Alpha virt. eigenvalues --    0.17539   0.20580   0.23124   0.24891   0.25627
 Alpha virt. eigenvalues --    0.28531   0.30053   0.33688   0.40427   0.63438
 Alpha virt. eigenvalues --    0.65373   0.67587   0.67940   0.75614   0.76593
 Alpha virt. eigenvalues --    0.89180   0.91589   1.01427   1.05238   1.08346
 Alpha virt. eigenvalues --    1.17411   1.20252   1.23204   1.31303   1.38101
 Alpha virt. eigenvalues --    1.52229   1.55066   1.71851   1.79273   1.81056
 Alpha virt. eigenvalues --    1.89768   2.06558   2.16052   2.22209   2.26209
 Alpha virt. eigenvalues --    2.37107   2.60082   2.60669   2.87865   3.06027
 Alpha virt. eigenvalues --    4.10828   4.18531   4.38678
  Beta  occ. eigenvalues --  -19.16229 -10.28660 -10.19918  -1.08045  -0.74960
  Beta  occ. eigenvalues --   -0.59952  -0.49086  -0.44973  -0.44552  -0.41567
  Beta  occ. eigenvalues --   -0.36905  -0.26571
  Beta virt. eigenvalues --   -0.03898   0.01244   0.02392   0.04743   0.05072
  Beta virt. eigenvalues --    0.07429   0.07680   0.09405   0.14227   0.16986
  Beta virt. eigenvalues --    0.17539   0.20580   0.23124   0.24891   0.25627
  Beta virt. eigenvalues --    0.28531   0.30053   0.33688   0.40427   0.63438
  Beta virt. eigenvalues --    0.65373   0.67587   0.67940   0.75614   0.76593
  Beta virt. eigenvalues --    0.89180   0.91589   1.01427   1.05238   1.08346
  Beta virt. eigenvalues --    1.17411   1.20252   1.23204   1.31303   1.38101
  Beta virt. eigenvalues --    1.52229   1.55066   1.71851   1.79273   1.81056
  Beta virt. eigenvalues --    1.89768   2.06558   2.16052   2.22209   2.26209
  Beta virt. eigenvalues --    2.37107   2.60082   2.60669   2.87865   3.06027
  Beta virt. eigenvalues --    4.10828   4.18531   4.38678
          Condensed to atoms (all electrons):
               1          2          3          4          5          6
     1  C    5.684031   0.179499   0.386580   0.383579   0.361001  -0.144825
     2  C    0.179499   4.839342  -0.034119  -0.031157  -0.039031   0.447289
     3  H    0.386580  -0.034119   0.468328  -0.028081  -0.022965  -0.009605
     4  H    0.383579  -0.031157  -0.028081   0.468816  -0.021567  -0.010381
     5  H    0.361001  -0.039031  -0.022965  -0.021567   0.510907   0.009541
     6  O   -0.144825   0.447289  -0.009605  -0.010381   0.009541   8.118469
     7  H   -0.115106   0.390675   0.002032   0.001912   0.005912  -0.064210
               7
     1  C   -0.115106
     2  C    0.390675
     3  H    0.002032
     4  H    0.001912
     5  H    0.005912
     6  O   -0.064210
     7  H    0.616164
          Atomic-Atomic Spin Densities.
               1          2          3          4          5          6
     1  C    0.000000  -0.000000   0.000000   0.000000   0.000000   0.000000
     2  C   -0.000000   0.000000  -0.000000  -0.000000  -0.000000  -0.000000
     3  H    0.000000  -0.000000  -0.000000  -0.000000   0.000000  -0.000000
     4  H    0.000000  -0.000000  -0.000000  -0.000000   0.000000   0.000000
     5  H    0.000000  -0.000000   0.000000   0.000000  -0.000000   0.000000
     6  O    0.000000  -0.000000  -0.000000   0.000000   0.000000   0.000000
     7  H   -0.000000   0.000000   0.000000   0.000000   0.000000   0.000000
               7
     1  C   -0.000000
     2  C    0.000000
     3  H    0.000000
     4  H    0.000000
     5  H    0.000000
     6  O    0.000000
     7  H   -0.000000
 Mulliken charges and spin densities:
               1          2
     1  C   -0.734759   0.000000
     2  C    0.247503  -0.000000
     3  H    0.237830  -0.000000
     4  H    0.236880  -0.000000
     5  H    0.196201   0.000000
     6  O   -0.346277   0.000000
     7  H    0.162622  -0.000000
 Sum of Mulliken charges =  -0.00000  -0.00000
 Mulliken charges and spin densities with hydrogens summed into heavy atoms:
               1          2
     1  C   -0.063847   0.000000
     2  C    0.410125  -0.000000
     6  O   -0.346277   0.000000
 Electronic spatial extent (au):  <R**2>=            160.3786
 Charge=             -0.0000 electrons
 Dipole moment (field-independent basis, Debye):
    X=             -2.1440    Y=              1.3120    Z=              0.0086  Tot=              2.5136
 Quadrupole moment (field-independent basis, Debye-Ang):
   XX=            -21.5561   YY=            -17.7652   ZZ=            -18.1488
   XY=              1.5139   XZ=              0.0254   YZ=             -0.0288
 Traceless Quadrupole moment (field-independent basis, Debye-Ang):
   XX=             -2.3994   YY=              1.3915   ZZ=              1.0079
   XY=              1.5139   XZ=              0.0254   YZ=             -0.0288
 Octapole moment (field-independent basis, Debye-Ang**2):
  XXX=             -0.3343  YYY=              0.5694  ZZZ=              0.0650  XYY=              0.6008
  XXY=              1.0793  XXZ=             -0.0846  XZZ=              1.3531  YZZ=             -1.0416
  YYZ=             -0.0178  XYZ=              0.0540
 Hexadecapole moment (field-independent basis, Debye-Ang**3):
 XXXX=           -145.4104 YYYY=            -47.5079 ZZZZ=            -24.4487 XXXY=             -1.7882
 XXXZ=              0.2258 YYYX=              0.5408 YYYZ=              0.0624 ZZZX=             -0.0667
 ZZZY=             -0.0841 XXYY=            -29.8064 XXZZ=            -27.3754 YYZZ=            -11.5172
 XXYZ=             -0.1073 YYXZ=              0.0837 ZZXY=              0.6662
 N-N= 7.095647417261D+01 E-N=-5.009430441428D+02  KE= 1.525490227369D+02
                          Isotropic Fermi Contact Couplings
        Atom                 a.u.       MegaHertz       Gauss      10(-4) cm-1
     1  C(13)              0.00000       0.00000       0.00000       0.00000
     2  C(13)              0.00000       0.00000       0.00000       0.00000
     3  H(1)              -0.00000      -0.00000      -0.00000      -0.00000
     4  H(1)              -0.00000      -0.00000      -0.00000      -0.00000
     5  H(1)               0.00000       0.00000       0.00000       0.00000
     6  O(17)              0.00000      -0.00000      -0.00000      -0.00000
     7  H(1)              -0.00000      -0.00000      -0.00000      -0.00000
 --------------------------------------------------------
       Center         ----  Spin Dipole Couplings  ----
                      3XX-RR        3YY-RR        3ZZ-RR
 --------------------------------------------------------
     1   Atom        0.000000      0.000000      0.000000
     2   Atom        0.000000      0.000000      0.000000
     3   Atom        0.000000      0.000000      0.000000
     4   Atom        0.000000      0.000000      0.000000
     5   Atom        0.000000      0.000000      0.000000
     6   Atom        0.000000      0.000000      0.000000
     7   Atom        0.000000      0.000000      0.000000
 --------------------------------------------------------
                        XY            XZ            YZ
 --------------------------------------------------------
     1   Atom        0.000000      0.000000      0.000000
     2   Atom        0.000000      0.000000      0.000000
     3   Atom        0.000000      0.000000      0.000000
     4   Atom        0.000000      0.000000      0.000000
     5   Atom        0.000000      0.000000      0.000000
     6   Atom        0.000000      0.000000      0.000000
     7   Atom        0.000000      0.000000      0.000000
 --------------------------------------------------------


 ---------------------------------------------------------------------------------
              Anisotropic Spin Dipole Couplings in Principal Axis System
 ---------------------------------------------------------------------------------

       Atom             a.u.   MegaHertz   Gauss  10(-4) cm-1        Axes

              Baa     0.0000     0.000     0.000     0.000  1.0000  0.0000  0.0000
     1 C(13)  Bbb     0.0000     0.000     0.000     0.000 -0.0000  1.0000  0.0000
              Bcc     0.0000     0.000     0.000     0.000  0.0000  0.0000  1.0000
 
              Baa     0.0000     0.000     0.000     0.000  1.0000  0.0000  0.0000
     2 C(13)  Bbb     0.0000     0.000     0.000     0.000 -0.0000  1.0000  0.0000
              Bcc     0.0000     0.000     0.000     0.000  0.0000  0.0000  1.0000
 
              Baa     0.0000     0.000     0.000     0.000  1.0000  0.0000  0.0000
     3 H(1)   Bbb     0.0000     0.000     0.000     0.000 -0.0000  1.0000  0.0000
              Bcc     0.0000     0.000     0.000     0.000  0.0000  0.0000  1.0000
 
              Baa     0.0000     0.000     0.000     0.000  1.0000  0.0000  0.0000
     4 H(1)   Bbb     0.0000     0.000     0.000     0.000 -0.0000  1.0000  0.0000
              Bcc     0.0000     0.000     0.000     0.000  0.0000  0.0000  1.0000
 
              Baa     0.0000     0.000     0.000     0.000  1.0000  0.0000  0.0000
     5 H(1)   Bbb     0.0000     0.000     0.000     0.000 -0.0000  1.0000  0.0000
              Bcc     0.0000     0.000     0.000     0.000  0.0000  0.0000  1.0000
 
              Baa     0.0000    -0.000    -0.000    -0.000  1.0000  0.0000  0.0000
     6 O(17)  Bbb     0.0000    -0.000    -0.000    -0.000 -0.0000  1.0000  0.0000
              Bcc     0.0000    -0.000    -0.000    -0.000  0.0000  0.0000  1.0000
 
              Baa     0.0000     0.000     0.000     0.000  1.0000  0.0000  0.0000
     7 H(1)   Bbb     0.0000     0.000     0.000     0.000 -0.0000  1.0000  0.0000
              Bcc     0.0000     0.000     0.000     0.000  0.0000  0.0000  1.0000
 

 ---------------------------------------------------------------------------------

 1\1\GINC-NODE31\SP\UB3LYP\6-31+G(d)\C2H4O1\YANZ\12-Oct-2023\0\\# ub3ly
 p/6-31+g(d)\\tmpdir/M3_conf_0_4.gjf\\0,1\C,0,0.,0.,0.\C,0,1.514,0.,0.\
 H,0,-0.34036,0.,-1.05001\H,0,-0.33205,-1.00301,0.32939\H,0,-0.44044,0.
 81619,0.57704\O,0,2.00361,-0.85026,-0.65266\H,0,2.07677,0.72168,0.5819
 \\Version=ES64L-G16RevA.03\State=1-A\HF=-153.829543\S2=0.\S2-1=0.\S2A=
 0.\RMSD=2.005e-09\Dipole=-0.5760061,0.6352909,0.4925551\Quadrupole=-0.
 5494483,0.1762507,0.3731976,1.417813,1.1010763,-0.4649192\PG=C01 [X(C2
 H4O1)]\\@


0EVERYBODY IS IGNORANT, ONLY ON DIFFERENT SUBJECTS.
0          WILL ROGERS
 Job cpu time:       0 days  0 hours  0 minutes 24.6 seconds.
 Elapsed time:       0 days  0 hours  0 minutes  6.4 seconds.
 File lengths (MBytes):  RWF=      6 Int=      0 D2E=      0 Chk=      1 Scr=      1
 Normal termination of Gaussian 16 at Thu Oct 12 15:27:31 2023.
