 Entering Gaussian System, Link 0=g16
 Initial command:
 /share/apps/gaussian/g16/l1.exe "/tmp/58287.mgr/Gau-21777.inp" -scrdir="/tmp/58287.mgr/"
 Entering Link 1 = /share/apps/gaussian/g16/l1.exe PID=     21784.
  
 Copyright (c) 1988,1990,1992,1993,1995,1998,2003,2009,2016,
            Gaussian, Inc.  All Rights Reserved.
  
 This is part of the Gaussian(R) 16 program.  It is based on
 the Gaussian(R) 09 system (copyright 2009, Gaussian, Inc.),
 the Gaussian(R) 03 system (copyright 2003, Gaussian, Inc.),
 the Gaussian(R) 98 system (copyright 1998, Gaussian, Inc.),
 the Gaussian(R) 94 system (copyright 1995, Gaussian, Inc.),
 the Gaussian 92(TM) system (copyright 1992, Gaussian, Inc.),
 the Gaussian 90(TM) system (copyright 1990, Gaussian, Inc.),
 the Gaussian 88(TM) system (copyright 1988, Gaussian, Inc.),
 the Gaussian 86(TM) system (copyright 1986, Carnegie Mellon
 University), and the Gaussian 82(TM) system (copyright 1983,
 Carnegie Mellon University). Gaussian is a federally registered
 trademark of Gaussian, Inc.
  
 This software contains proprietary and confidential information,
 including trade secrets, belonging to Gaussian, Inc.
  
 This software is provided under written license and may be
 used, copied, transmitted, or stored only in accord with that
 written license.
  
 The following legend is applicable only to US Government
 contracts under FAR:
  
                    RESTRICTED RIGHTS LEGEND
  
 Use, reproduction and disclosure by the US Government is
 subject to restrictions as set forth in subparagraphs (a)
 and (c) of the Commercial Computer Software - Restricted
 Rights clause in FAR 52.227-19.
  
 Gaussian, Inc.
 340 Quinnipiac St., Bldg. 40, Wallingford CT 06492
  
  
 ---------------------------------------------------------------
 Warning -- This program may not be used in any manner that
 competes with the business of Gaussian, Inc. or will provide
 assistance to any competitor of Gaussian, Inc.  The licensee
 of this program is prohibited from giving any competitor of
 Gaussian, Inc. access to this program.  By using this program,
 the user acknowledges that Gaussian, Inc. is engaged in the
 business of creating and licensing software in the field of
 computational chemistry and represents and warrants to the
 licensee that it is not a competitor of Gaussian, Inc. and that
 it will not use this program in any manner prohibited above.
 ---------------------------------------------------------------
  

 Cite this work as:
 Gaussian 16, Revision A.03,
 M. J. Frisch, G. W. Trucks, H. B. Schlegel, G. E. Scuseria, 
 M. A. Robb, J. R. Cheeseman, G. Scalmani, V. Barone, 
 G. A. Petersson, H. Nakatsuji, X. Li, M. Caricato, A. V. Marenich, 
 J. Bloino, B. G. Janesko, R. Gomperts, B. Mennucci, H. P. Hratchian, 
 J. V. Ortiz, A. F. Izmaylov, J. L. Sonnenberg, D. Williams-Young, 
 F. Ding, F. Lipparini, F. Egidi, J. Goings, B. Peng, A. Petrone, 
 T. Henderson, D. Ranasinghe, V. G. Zakrzewski, J. Gao, N. Rega, 
 G. Zheng, W. Liang, M. Hada, M. Ehara, K. Toyota, R. Fukuda, 
 J. Hasegawa, M. Ishida, T. Nakajima, Y. Honda, O. Kitao, H. Nakai, 
 T. Vreven, K. Throssell, J. A. Montgomery, Jr., J. E. Peralta, 
 F. Ogliaro, M. J. Bearpark, J. J. Heyd, E. N. Brothers, K. N. Kudin, 
 V. N. Staroverov, T. A. Keith, R. Kobayashi, J. Normand, 
 K. Raghavachari, A. P. Rendell, J. C. Burant, S. S. Iyengar, 
 J. Tomasi, M. Cossi, J. M. Millam, M. Klene, C. Adamo, R. Cammi, 
 J. W. Ochterski, R. L. Martin, K. Morokuma, O. Farkas, 
 J. B. Foresman, and D. J. Fox, Gaussian, Inc., Wallingford CT, 2016.
 
 ******************************************
 Gaussian 16:  ES64L-G16RevA.03 25-Dec-2016
                12-Oct-2023 
 ******************************************
 %nprocshared=4
 Will use up to    4 processors via shared memory.
 %mem=4GB
 ------------------
 # ub3lyp/6-31+g(d)
 ------------------
 1/38=1,172=1/1;
 2/12=2,17=6,18=5,40=1/2;
 3/5=1,6=6,7=11,11=2,25=1,30=1,74=-5,116=2/1,2,3;
 4//1;
 5/5=2,38=5/2;
 6/7=2,8=2,9=2,10=2,28=1/1;
 99/5=1,9=1/99;
 ----------------------
 tmpdir/M3_conf_0_6.gjf
 ----------------------
 Symbolic Z-matrix:
 Charge =  0 Multiplicity = 1
 C                     0.        0.        0. 
 C                     1.5248    0.        0. 
 H                     1.93699   0.        1.01154 
 C                    -0.82802  -0.07439   1.11123 
 C                    -0.54673   0.01556  -1.29167 
 C                    -2.2122   -0.10842   0.93314 
 H                    -0.40127  -0.09794   2.11078 
 C                    -1.9207   -0.02603  -1.46665 
 C                    -2.75562  -0.08359  -0.34751 
 H                    -2.86665  -0.15397   1.79872 
 H                    -2.34472  -0.01547  -2.46759 
 H                    -3.83323  -0.11062  -0.47948 
 H                     1.73578  -0.92898  -0.56327 
 H                     1.86396   0.84454  -0.61766 
 H                     0.20992   0.04991  -2.0866 
 
                          Input orientation:                          
 ---------------------------------------------------------------------
 Center     Atomic      Atomic             Coordinates (Angstroms)
 Number     Number       Type             X           Y           Z
 ---------------------------------------------------------------------
      1          6           0        0.000000    0.000000    0.000000
      2          6           0        1.524800    0.000000    0.000000
      3          1           0        1.936990    0.000000    1.011540
      4          6           0       -0.828020   -0.074390    1.111230
      5          6           0       -0.546730    0.015560   -1.291670
      6          6           0       -2.212200   -0.108420    0.933140
      7          1           0       -0.401270   -0.097940    2.110780
      8          6           0       -1.920700   -0.026030   -1.466650
      9          6           0       -2.755620   -0.083590   -0.347510
     10          1           0       -2.866650   -0.153970    1.798720
     11          1           0       -2.344720   -0.015470   -2.467590
     12          1           0       -3.833230   -0.110620   -0.479480
     13          1           0        1.735780   -0.928980   -0.563270
     14          1           0        1.863960    0.844540   -0.617660
     15          1           0        0.209920    0.049910   -2.086600
 ---------------------------------------------------------------------
                    Distance matrix (angstroms):
                    1          2          3          4          5
     1  C    0.000000
     2  C    1.524800   0.000000
     3  H    2.185210   1.092297   0.000000
     4  C    1.387798   2.603100   2.767806   0.000000
     5  C    1.402700   2.441289   3.387312   2.420980   0.000000
     6  C    2.403401   3.853268   4.151347   1.396004   2.781895
     7  H    2.150814   2.859148   2.585610   1.087093   3.407449
     8  C    2.416781   3.744758   4.585180   2.800313   1.385692
     9  C    2.778703   4.295317   4.886163   2.417364   2.404260
    10  H    3.387740   4.748045   4.870145   2.152902   3.867981
    11  H    3.403961   4.589382   5.517030   3.887390   2.148609
    12  H    3.864685   5.380578   5.960773   3.400435   3.387721
    13  H    2.047733   1.106702   1.839434   3.179205   2.575378
    14  H    2.137545   1.099901   1.836539   3.328701   2.636840
    15  H    2.097727   2.466840   3.547356   3.364355   1.098004
                    6          7          8          9         10
     6  C    0.000000
     7  H    2.160188   0.000000
     8  C    2.418833   3.887396   0.000000
     9  C    1.391397   3.403874   1.397454   0.000000
    10  H    1.086098   2.485683   3.402033   2.150252   0.000000
    11  H    3.404580   4.974462   1.087100   2.160606   4.300348
    12  H    2.150172   4.299762   2.153934   1.085997   2.475147
    13  H    4.301059   3.522521   3.873146   4.575359   5.230870
    14  H    4.464101   3.669322   3.975214   4.719632   5.405052
    15  H    3.874347   4.244221   2.220281   3.440448   4.960097
                   11         12         13         14         15
    11  H    0.000000
    12  H    2.485417   0.000000
    13  H    4.594716   5.629441   0.000000
    14  H    4.677055   5.778356   1.778978   0.000000
    15  H    2.583721   4.353811   2.367912   2.350547   0.000000
 Stoichiometry    C7H8
 Framework group  C1[X(C7H8)]
 Deg. of freedom    39
 Full point group                 C1      NOp   1
 Largest Abelian subgroup         C1      NOp   1
 Largest concise Abelian subgroup C1      NOp   1
                         Standard orientation:                         
 ---------------------------------------------------------------------
 Center     Atomic      Atomic             Coordinates (Angstroms)
 Number     Number       Type             X           Y           Z
 ---------------------------------------------------------------------
      1          6           0        0.890006    0.106724   -0.026227
      2          6           0        2.412438    0.029197    0.008483
      3          1           0        2.876138    1.017922   -0.014312
      4          6           0        0.118991    1.260463   -0.006092
      5          6           0        0.277862   -1.155288   -0.013131
      6          6           0       -1.272939    1.154198    0.002068
      7          1           0        0.596113    2.237255   -0.004642
      8          6           0       -1.103873   -1.258719    0.002717
      9          6           0       -1.881015   -0.097288    0.005626
     10          1           0       -1.882709    2.052963    0.005151
     11          1           0       -1.578615   -2.236610    0.014353
     12          1           0       -2.964325   -0.173335    0.012303
     13          1           0        2.574446   -0.513169    0.959473
     14          1           0        2.737052   -0.632388   -0.808042
     15          1           0        0.993079   -1.988361   -0.004943
 ---------------------------------------------------------------------
 Rotational constants (GHZ):           5.4934835           2.5614020           1.7664095
 Standard basis: 6-31+G(d) (6D, 7F)
 There are   149 symmetry adapted cartesian basis functions of A   symmetry.
 There are   149 symmetry adapted basis functions of A   symmetry.
   149 basis functions,   256 primitive gaussians,   149 cartesian basis functions
    25 alpha electrons       25 beta electrons
       nuclear repulsion energy       269.6667688005 Hartrees.
 NAtoms=   15 NActive=   15 NUniq=   15 SFac= 1.00D+00 NAtFMM=   60 NAOKFM=F Big=F
 Integral buffers will be    131072 words long.
 Raffenetti 2 integral format.
 Two-electron integral symmetry is turned on.
 One-electron integrals computed using PRISM.
 NBasis=   149 RedAO= T EigKep=  5.01D-06  NBF=   149
 NBsUse=   149 1.00D-06 EigRej= -1.00D+00 NBFU=   149
 ExpMin= 4.38D-02 ExpMax= 3.05D+03 ExpMxC= 4.57D+02 IAcc=3 IRadAn=         5 AccDes= 0.00D+00
 Harris functional with IExCor=  402 and IRadAn=       5 diagonalized for initial guess.
 HarFok:  IExCor=  402 AccDes= 0.00D+00 IRadAn=         5 IDoV= 1 UseB2=F ITyADJ=14
 ICtDFT=  3500011 ScaDFX=  1.000000  1.000000  1.000000  1.000000
 FoFCou: FMM=F IPFlag=           0 FMFlag=      100000 FMFlg1=           0
         NFxFlg=           0 DoJE=T BraDBF=F KetDBF=T FulRan=T
         wScrn=  0.000000 ICntrl=       500 IOpCl=  0 I1Cent=   200000004 NGrid=           0
         NMat0=    1 NMatS0=      1 NMatT0=    0 NMatD0=    1 NMtDS0=    0 NMtDT0=    0
 Petite list used in FoFCou.
 Initial guess <Sx>= 0.0000 <Sy>= 0.0000 <Sz>= 0.0000 <S**2>= 0.0000 S= 0.0000
 Keep R1 and R2 ints in memory in canonical form, NReq=128793723.
 Requested convergence on RMS density matrix=1.00D-08 within 128 cycles.
 Requested convergence on MAX density matrix=1.00D-06.
 Requested convergence on             energy=1.00D-06.
 No special actions if energy rises.
 SCF Done:  E(UB3LYP) =  -271.568521761     A.U. after   12 cycles
            NFock= 12  Conv=0.62D-08     -V/T= 2.0099
 <Sx>= 0.0000 <Sy>= 0.0000 <Sz>= 0.0000 <S**2>=-0.0000 S=-0.0000
 <L.S>= 0.000000000000E+00
 Annihilation of the first spin contaminant:
 S**2 before annihilation    -0.0000,   after    -0.0000

 **********************************************************************

            Population analysis using the SCF density.

 **********************************************************************

 Orbital symmetries:
 Alpha Orbitals:
       Occupied  (A) (A) (A) (A) (A) (A) (A) (A) (A) (A) (A) (A)
                 (A) (A) (A) (A) (A) (A) (A) (A) (A) (A) (A) (A)
                 (A)
       Virtual   (A) (A) (A) (A) (A) (A) (A) (A) (A) (A) (A) (A)
                 (A) (A) (A) (A) (A) (A) (A) (A) (A) (A) (A) (A)
                 (A) (A) (A) (A) (A) (A) (A) (A) (A) (A) (A) (A)
                 (A) (A) (A) (A) (A) (A) (A) (A) (A) (A) (A) (A)
                 (A) (A) (A) (A) (A) (A) (A) (A) (A) (A) (A) (A)
                 (A) (A) (A) (A) (A) (A) (A) (A) (A) (A) (A) (A)
                 (A) (A) (A) (A) (A) (A) (A) (A) (A) (A) (A) (A)
                 (A) (A) (A) (A) (A) (A) (A) (A) (A) (A) (A) (A)
                 (A) (A) (A) (A) (A) (A) (A) (A) (A) (A) (A) (A)
                 (A) (A) (A) (A) (A) (A) (A) (A) (A) (A) (A) (A)
                 (A) (A) (A) (A)
 Beta  Orbitals:
       Occupied  (A) (A) (A) (A) (A) (A) (A) (A) (A) (A) (A) (A)
                 (A) (A) (A) (A) (A) (A) (A) (A) (A) (A) (A) (A)
                 (A)
       Virtual   (A) (A) (A) (A) (A) (A) (A) (A) (A) (A) (A) (A)
                 (A) (A) (A) (A) (A) (A) (A) (A) (A) (A) (A) (A)
                 (A) (A) (A) (A) (A) (A) (A) (A) (A) (A) (A) (A)
                 (A) (A) (A) (A) (A) (A) (A) (A) (A) (A) (A) (A)
                 (A) (A) (A) (A) (A) (A) (A) (A) (A) (A) (A) (A)
                 (A) (A) (A) (A) (A) (A) (A) (A) (A) (A) (A) (A)
                 (A) (A) (A) (A) (A) (A) (A) (A) (A) (A) (A) (A)
                 (A) (A) (A) (A) (A) (A) (A) (A) (A) (A) (A) (A)
                 (A) (A) (A) (A) (A) (A) (A) (A) (A) (A) (A) (A)
                 (A) (A) (A) (A) (A) (A) (A) (A) (A) (A) (A) (A)
                 (A) (A) (A) (A)
 The electronic state is 1-A.
 Alpha  occ. eigenvalues --  -10.19940 -10.19486 -10.19389 -10.19127 -10.19110
 Alpha  occ. eigenvalues --  -10.19027 -10.18964  -0.86048  -0.77569  -0.74842
 Alpha  occ. eigenvalues --   -0.68559  -0.61005  -0.58264  -0.51283  -0.46498
 Alpha  occ. eigenvalues --   -0.45508  -0.42678  -0.42490  -0.40322  -0.39664
 Alpha  occ. eigenvalues --   -0.35672  -0.34544  -0.33655  -0.25581  -0.24259
 Alpha virt. eigenvalues --   -0.01460  -0.00597   0.00598   0.01991   0.02504
 Alpha virt. eigenvalues --    0.04275   0.04706   0.05091   0.06432   0.06907
 Alpha virt. eigenvalues --    0.07845   0.08208   0.08918   0.10255   0.12359
 Alpha virt. eigenvalues --    0.12627   0.12991   0.13415   0.14092   0.15513
 Alpha virt. eigenvalues --    0.16020   0.16734   0.17322   0.18054   0.19489
 Alpha virt. eigenvalues --    0.19835   0.21424   0.21581   0.21872   0.22917
 Alpha virt. eigenvalues --    0.23692   0.24045   0.24983   0.25731   0.26651
 Alpha virt. eigenvalues --    0.28015   0.28334   0.29888   0.31778   0.33481
 Alpha virt. eigenvalues --    0.34792   0.35670   0.37280   0.39566   0.55918
 Alpha virt. eigenvalues --    0.60188   0.64679   0.66900   0.67167   0.69167
 Alpha virt. eigenvalues --    0.71076   0.71893   0.72121   0.73644   0.74129
 Alpha virt. eigenvalues --    0.74806   0.76477   0.77333   0.78000   0.80977
 Alpha virt. eigenvalues --    0.82109   0.85880   0.89686   0.93031   0.93785
 Alpha virt. eigenvalues --    0.94562   0.96540   1.00795   1.02246   1.04569
 Alpha virt. eigenvalues --    1.08666   1.09124   1.13345   1.13987   1.16650
 Alpha virt. eigenvalues --    1.19275   1.21670   1.25762   1.31703   1.35968
 Alpha virt. eigenvalues --    1.42167   1.44052   1.45850   1.48216   1.49152
 Alpha virt. eigenvalues --    1.50102   1.50924   1.83099   1.84095   1.85046
 Alpha virt. eigenvalues --    1.90562   1.92024   1.94117   1.96090   1.99818
 Alpha virt. eigenvalues --    2.11357   2.12312   2.15189   2.15654   2.19704
 Alpha virt. eigenvalues --    2.20488   2.24714   2.30908   2.32012   2.34598
 Alpha virt. eigenvalues --    2.36979   2.39418   2.59645   2.61753   2.66123
 Alpha virt. eigenvalues --    2.74144   2.74929   2.75375   2.78475   2.90965
 Alpha virt. eigenvalues --    3.07156   3.41440   4.22730   4.24719   4.25679
 Alpha virt. eigenvalues --    4.31669   4.38487   4.44931   4.71411
  Beta  occ. eigenvalues --  -10.19940 -10.19486 -10.19389 -10.19127 -10.19110
  Beta  occ. eigenvalues --  -10.19027 -10.18964  -0.86048  -0.77569  -0.74842
  Beta  occ. eigenvalues --   -0.68559  -0.61005  -0.58264  -0.51283  -0.46498
  Beta  occ. eigenvalues --   -0.45508  -0.42678  -0.42490  -0.40322  -0.39664
  Beta  occ. eigenvalues --   -0.35672  -0.34544  -0.33655  -0.25581  -0.24259
  Beta virt. eigenvalues --   -0.01460  -0.00597   0.00598   0.01991   0.02504
  Beta virt. eigenvalues --    0.04275   0.04706   0.05091   0.06432   0.06907
  Beta virt. eigenvalues --    0.07845   0.08208   0.08918   0.10255   0.12359
  Beta virt. eigenvalues --    0.12627   0.12991   0.13415   0.14092   0.15513
  Beta virt. eigenvalues --    0.16020   0.16734   0.17322   0.18054   0.19489
  Beta virt. eigenvalues --    0.19835   0.21424   0.21581   0.21872   0.22917
  Beta virt. eigenvalues --    0.23692   0.24045   0.24983   0.25731   0.26651
  Beta virt. eigenvalues --    0.28015   0.28334   0.29888   0.31778   0.33481
  Beta virt. eigenvalues --    0.34792   0.35670   0.37280   0.39566   0.55918
  Beta virt. eigenvalues --    0.60188   0.64679   0.66900   0.67167   0.69167
  Beta virt. eigenvalues --    0.71076   0.71893   0.72121   0.73644   0.74129
  Beta virt. eigenvalues --    0.74806   0.76477   0.77333   0.78000   0.80977
  Beta virt. eigenvalues --    0.82109   0.85880   0.89686   0.93031   0.93785
  Beta virt. eigenvalues --    0.94562   0.96540   1.00795   1.02246   1.04569
  Beta virt. eigenvalues --    1.08666   1.09124   1.13345   1.13987   1.16650
  Beta virt. eigenvalues --    1.19275   1.21670   1.25762   1.31703   1.35968
  Beta virt. eigenvalues --    1.42167   1.44052   1.45850   1.48216   1.49152
  Beta virt. eigenvalues --    1.50102   1.50924   1.83099   1.84095   1.85046
  Beta virt. eigenvalues --    1.90562   1.92024   1.94117   1.96090   1.99818
  Beta virt. eigenvalues --    2.11357   2.12312   2.15189   2.15654   2.19704
  Beta virt. eigenvalues --    2.20488   2.24714   2.30908   2.32012   2.34598
  Beta virt. eigenvalues --    2.36979   2.39418   2.59645   2.61753   2.66123
  Beta virt. eigenvalues --    2.74144   2.74929   2.75375   2.78475   2.90965
  Beta virt. eigenvalues --    3.07156   3.41440   4.22730   4.24719   4.25679
  Beta virt. eigenvalues --    4.31669   4.38487   4.44931   4.71411
          Condensed to atoms (all electrons):
               1          2          3          4          5          6
     1  C    7.528493  -0.561892  -0.118571  -0.189102  -0.559566  -0.103137
     2  C   -0.561892   6.050853   0.448488   0.410916  -0.158557  -0.056265
     3  H   -0.118571   0.448488   0.496192   0.018505  -0.004845   0.002093
     4  C   -0.189102   0.410916   0.018505   7.951515  -2.418014   0.434797
     5  C   -0.559566  -0.158557  -0.004845  -2.418014   8.802609  -0.076539
     6  C   -0.103137  -0.056265   0.002093   0.434797  -0.076539   5.310077
     7  H    0.026353  -0.007449   0.003290   0.226991   0.030745   0.000455
     8  C    0.065471  -0.107505  -0.006710   0.235765  -0.168975  -0.144313
     9  C   -0.309169   0.039981   0.001641  -0.106634   0.261310   0.535181
    10  H    0.010451   0.000717  -0.000000  -0.007211  -0.004586   0.277722
    11  H    0.019576  -0.000029   0.000003  -0.007608  -0.017736   0.010368
    12  H    0.001822   0.000523  -0.000000   0.005470   0.005539   0.011579
    13  H   -0.138447   0.452819  -0.020633  -0.000476   0.017834  -0.009514
    14  H   -0.089223   0.411885  -0.020981   0.026389  -0.018444  -0.003988
    15  H    0.001060   0.004700   0.000385   0.068145   0.214132  -0.013783
               7          8          9         10         11         12
     1  C    0.026353   0.065471  -0.309169   0.010451   0.019576   0.001822
     2  C   -0.007449  -0.107505   0.039981   0.000717  -0.000029   0.000523
     3  H    0.003290  -0.006710   0.001641  -0.000000   0.000003  -0.000000
     4  C    0.226991   0.235765  -0.106634  -0.007211  -0.007608   0.005470
     5  C    0.030745  -0.168975   0.261310  -0.004586  -0.017736   0.005539
     6  C    0.000455  -0.144313   0.535181   0.277722   0.010368   0.011579
     7  H    0.552907  -0.012367   0.011624  -0.004763   0.000019  -0.000159
     8  C   -0.012367   5.622577   0.352615   0.004043   0.289840  -0.005918
     9  C    0.011624   0.352615   5.093028   0.009523  -0.005141   0.273218
    10  H   -0.004763   0.004043   0.009523   0.543104  -0.000163  -0.005184
    11  H    0.000019   0.289840  -0.005141  -0.000163   0.542765  -0.005075
    12  H   -0.000159  -0.005918   0.273218  -0.005184  -0.005075   0.543667
    13  H    0.000082  -0.006448   0.004832   0.000003  -0.000003   0.000000
    14  H    0.000041  -0.001100   0.003496   0.000002  -0.000003   0.000000
    15  H   -0.000186  -0.015480   0.012198   0.000018  -0.003996  -0.000142
              13         14         15
     1  C   -0.138447  -0.089223   0.001060
     2  C    0.452819   0.411885   0.004700
     3  H   -0.020633  -0.020981   0.000385
     4  C   -0.000476   0.026389   0.068145
     5  C    0.017834  -0.018444   0.214132
     6  C   -0.009514  -0.003988  -0.013783
     7  H    0.000082   0.000041  -0.000186
     8  C   -0.006448  -0.001100  -0.015480
     9  C    0.004832   0.003496   0.012198
    10  H    0.000003   0.000002   0.000018
    11  H   -0.000003  -0.000003  -0.003996
    12  H    0.000000   0.000000  -0.000142
    13  H    0.511210  -0.034223   0.001081
    14  H   -0.034223   0.501404   0.001374
    15  H    0.001081   0.001374   0.555887
          Atomic-Atomic Spin Densities.
               1          2          3          4          5          6
     1  C   -0.000000   0.000000   0.000000   0.000000  -0.000000  -0.000000
     2  C    0.000000  -0.000000  -0.000000  -0.000000  -0.000000   0.000000
     3  H    0.000000  -0.000000   0.000000  -0.000000  -0.000000   0.000000
     4  C    0.000000  -0.000000  -0.000000  -0.000000  -0.000000   0.000000
     5  C   -0.000000  -0.000000  -0.000000  -0.000000   0.000000   0.000000
     6  C   -0.000000   0.000000   0.000000   0.000000   0.000000  -0.000000
     7  H    0.000000  -0.000000   0.000000  -0.000000   0.000000  -0.000000
     8  C   -0.000000   0.000000   0.000000   0.000000  -0.000000  -0.000000
     9  C    0.000000  -0.000000  -0.000000  -0.000000  -0.000000   0.000000
    10  H    0.000000  -0.000000   0.000000  -0.000000  -0.000000   0.000000
    11  H    0.000000  -0.000000   0.000000  -0.000000  -0.000000   0.000000
    12  H   -0.000000   0.000000  -0.000000   0.000000   0.000000  -0.000000
    13  H    0.000000  -0.000000   0.000000  -0.000000  -0.000000   0.000000
    14  H    0.000000  -0.000000   0.000000  -0.000000  -0.000000   0.000000
    15  H    0.000000  -0.000000   0.000000  -0.000000  -0.000000   0.000000
               7          8          9         10         11         12
     1  C    0.000000  -0.000000   0.000000   0.000000   0.000000  -0.000000
     2  C   -0.000000   0.000000  -0.000000  -0.000000  -0.000000   0.000000
     3  H    0.000000   0.000000  -0.000000   0.000000   0.000000  -0.000000
     4  C   -0.000000   0.000000  -0.000000  -0.000000  -0.000000   0.000000
     5  C    0.000000  -0.000000  -0.000000  -0.000000  -0.000000   0.000000
     6  C   -0.000000  -0.000000   0.000000   0.000000   0.000000  -0.000000
     7  H    0.000000   0.000000  -0.000000   0.000000   0.000000   0.000000
     8  C    0.000000   0.000000   0.000000   0.000000   0.000000  -0.000000
     9  C   -0.000000   0.000000  -0.000000  -0.000000  -0.000000   0.000000
    10  H    0.000000   0.000000  -0.000000  -0.000000  -0.000000   0.000000
    11  H    0.000000   0.000000  -0.000000  -0.000000  -0.000000   0.000000
    12  H    0.000000  -0.000000   0.000000   0.000000   0.000000  -0.000000
    13  H    0.000000   0.000000  -0.000000  -0.000000  -0.000000   0.000000
    14  H    0.000000   0.000000  -0.000000  -0.000000  -0.000000   0.000000
    15  H    0.000000   0.000000  -0.000000   0.000000   0.000000   0.000000
              13         14         15
     1  C    0.000000   0.000000   0.000000
     2  C   -0.000000  -0.000000  -0.000000
     3  H    0.000000   0.000000   0.000000
     4  C   -0.000000  -0.000000  -0.000000
     5  C   -0.000000  -0.000000  -0.000000
     6  C    0.000000   0.000000   0.000000
     7  H    0.000000   0.000000   0.000000
     8  C    0.000000   0.000000   0.000000
     9  C   -0.000000  -0.000000  -0.000000
    10  H   -0.000000  -0.000000   0.000000
    11  H   -0.000000  -0.000000   0.000000
    12  H    0.000000   0.000000   0.000000
    13  H    0.000000   0.000000   0.000000
    14  H    0.000000   0.000000   0.000000
    15  H    0.000000   0.000000   0.000000
 Mulliken charges and spin densities:
               1          2
     1  C    0.415881   0.000000
     2  C   -0.929185  -0.000000
     3  H    0.201144   0.000000
     4  C   -0.649447  -0.000000
     5  C    0.095093  -0.000000
     6  C   -0.174733   0.000000
     7  H    0.172419   0.000000
     8  C   -0.101496   0.000000
     9  C   -0.177704  -0.000000
    10  H    0.176323  -0.000000
    11  H    0.177183  -0.000000
    12  H    0.174659   0.000000
    13  H    0.221882   0.000000
    14  H    0.223371   0.000000
    15  H    0.174608   0.000000
 Sum of Mulliken charges =  -0.00000  -0.00000
 Mulliken charges and spin densities with hydrogens summed into heavy atoms:
               1          2
     1  C    0.415881   0.000000
     2  C   -0.282787  -0.000000
     4  C   -0.477028  -0.000000
     5  C    0.269701  -0.000000
     6  C    0.001590   0.000000
     8  C    0.075687   0.000000
     9  C   -0.003044  -0.000000
 Electronic spatial extent (au):  <R**2>=            713.4120
 Charge=             -0.0000 electrons
 Dipole moment (field-independent basis, Debye):
    X=              0.3958    Y=             -0.0442    Z=              0.0489  Tot=              0.4013
 Quadrupole moment (field-independent basis, Debye-Ang):
   XX=            -39.4668   YY=            -39.2012   ZZ=            -46.6005
   XY=             -0.1646   XZ=             -0.1048   YZ=             -0.0223
 Traceless Quadrupole moment (field-independent basis, Debye-Ang):
   XX=              2.2894   YY=              2.5550   ZZ=             -4.8444
   XY=             -0.1646   XZ=             -0.1048   YZ=             -0.0223
 Octapole moment (field-independent basis, Debye-Ang**2):
  XXX=             -6.9560  YYY=              1.3709  ZZZ=              0.2957  XYY=             -0.3452
  XXY=             -0.1175  XXZ=             -0.5581  XZZ=              3.8841  YZZ=             -0.6831
  YYZ=              0.0146  XYZ=              0.1232
 Hexadecapole moment (field-independent basis, Debye-Ang**3):
 XXXX=           -626.8722 YYYY=           -299.6048 ZZZZ=            -65.3440 XXXY=              1.5372
 XXXZ=             -3.0821 YYYX=              1.9691 YYYZ=             -0.0924 ZZZX=              0.3676
 ZZZY=             -0.1602 XXYY=           -146.8303 XXZZ=           -122.9991 YYZZ=            -70.9422
 XXYZ=              0.3823 YYXZ=             -0.4504 ZZXY=             -1.7522
 N-N= 2.696667688005D+02 E-N=-1.167080767846D+03  KE= 2.688951900386D+02
                          Isotropic Fermi Contact Couplings
        Atom                 a.u.       MegaHertz       Gauss      10(-4) cm-1
     1  C(13)             -0.00000      -0.00000      -0.00000      -0.00000
     2  C(13)              0.00000       0.00000       0.00000       0.00000
     3  H(1)               0.00000       0.00000       0.00000       0.00000
     4  C(13)              0.00000       0.00000       0.00000       0.00000
     5  C(13)              0.00000       0.00000       0.00000       0.00000
     6  C(13)             -0.00000      -0.00000      -0.00000      -0.00000
     7  H(1)              -0.00000      -0.00000      -0.00000      -0.00000
     8  C(13)             -0.00000      -0.00000      -0.00000      -0.00000
     9  C(13)             -0.00000      -0.00000      -0.00000      -0.00000
    10  H(1)               0.00000       0.00000       0.00000       0.00000
    11  H(1)               0.00000       0.00000       0.00000       0.00000
    12  H(1)               0.00000       0.00000       0.00000       0.00000
    13  H(1)               0.00000       0.00000       0.00000       0.00000
    14  H(1)               0.00000       0.00000       0.00000       0.00000
    15  H(1)              -0.00000      -0.00000      -0.00000      -0.00000
 --------------------------------------------------------
       Center         ----  Spin Dipole Couplings  ----
                      3XX-RR        3YY-RR        3ZZ-RR
 --------------------------------------------------------
     1   Atom       -0.000000      0.000000      0.000000
     2   Atom       -0.000000      0.000000     -0.000000
     3   Atom        0.000000     -0.000000      0.000000
     4   Atom       -0.000000     -0.000000      0.000000
     5   Atom        0.000000      0.000000     -0.000000
     6   Atom        0.000000     -0.000000      0.000000
     7   Atom       -0.000000     -0.000000      0.000000
     8   Atom       -0.000000     -0.000000      0.000000
     9   Atom       -0.000000      0.000000     -0.000000
    10   Atom       -0.000000      0.000000      0.000000
    11   Atom       -0.000000      0.000000      0.000000
    12   Atom       -0.000000      0.000000      0.000000
    13   Atom        0.000000     -0.000000     -0.000000
    14   Atom        0.000000     -0.000000     -0.000000
    15   Atom        0.000000     -0.000000      0.000000
 --------------------------------------------------------
                        XY            XZ            YZ
 --------------------------------------------------------
     1   Atom        0.000000     -0.000000     -0.000000
     2   Atom        0.000000      0.000000      0.000000
     3   Atom       -0.000000      0.000000      0.000000
     4   Atom       -0.000000      0.000000     -0.000000
     5   Atom        0.000000      0.000000     -0.000000
     6   Atom       -0.000000      0.000000      0.000000
     7   Atom        0.000000     -0.000000     -0.000000
     8   Atom        0.000000     -0.000000      0.000000
     9   Atom       -0.000000      0.000000      0.000000
    10   Atom       -0.000000      0.000000     -0.000000
    11   Atom        0.000000     -0.000000     -0.000000
    12   Atom        0.000000     -0.000000     -0.000000
    13   Atom        0.000000     -0.000000      0.000000
    14   Atom        0.000000      0.000000     -0.000000
    15   Atom        0.000000     -0.000000      0.000000
 --------------------------------------------------------


 ---------------------------------------------------------------------------------
              Anisotropic Spin Dipole Couplings in Principal Axis System
 ---------------------------------------------------------------------------------

       Atom             a.u.   MegaHertz   Gauss  10(-4) cm-1        Axes

              Baa    -0.0000    -0.000    -0.000    -0.000  0.9621 -0.2595  0.0840
     1 C(13)  Bbb    -0.0000    -0.000    -0.000    -0.000  0.0545  0.4846  0.8730
              Bcc     0.0000     0.000     0.000     0.000  0.2673  0.8353 -0.4804
 
              Baa    -0.0000    -0.000    -0.000    -0.000 -0.6376 -0.1930  0.7458
     2 C(13)  Bbb    -0.0000    -0.000    -0.000    -0.000  0.7690 -0.2182  0.6009
              Bcc     0.0000     0.000     0.000     0.000  0.0467  0.9566  0.2875
 
              Baa    -0.0000    -0.000    -0.000    -0.000  0.3200  0.9465 -0.0415
     3 H(1)   Bbb     0.0000     0.000     0.000     0.000 -0.6526  0.2519  0.7146
              Bcc     0.0000     0.000     0.000     0.000  0.6869 -0.2016  0.6983
 
              Baa    -0.0000    -0.000    -0.000    -0.000  0.5168  0.8561 -0.0094
     4 C(13)  Bbb    -0.0000    -0.000    -0.000    -0.000  0.8111 -0.4931 -0.3147
              Bcc     0.0000     0.000     0.000     0.000  0.2740 -0.1550  0.9492
 
              Baa    -0.0000    -0.000    -0.000    -0.000 -0.1615  0.1111  0.9806
     5 C(13)  Bbb     0.0000     0.000     0.000     0.000  0.8837 -0.4262  0.1938
              Bcc     0.0000     0.000     0.000     0.000  0.4394  0.8978 -0.0294
 
              Baa    -0.0000    -0.000    -0.000    -0.000  0.0190  0.9979 -0.0617
     6 C(13)  Bbb     0.0000     0.000     0.000     0.000 -0.0117  0.0620  0.9980
              Bcc     0.0000     0.000     0.000     0.000  0.9998 -0.0182  0.0129
 
              Baa    -0.0000    -0.000    -0.000    -0.000  0.8386 -0.5418 -0.0566
     7 H(1)   Bbb     0.0000     0.000     0.000     0.000  0.5196  0.7642  0.3823
              Bcc     0.0000     0.000     0.000     0.000 -0.1639 -0.3500  0.9223
 
              Baa    -0.0000    -0.000    -0.000    -0.000  0.9852 -0.1035  0.1368
     8 C(13)  Bbb    -0.0000    -0.000    -0.000    -0.000  0.1214  0.9841 -0.1295
              Bcc     0.0000     0.000     0.000     0.000 -0.1212  0.1441  0.9821
 
              Baa    -0.0000    -0.000    -0.000    -0.000  0.6951  0.4444 -0.5651
     9 C(13)  Bbb    -0.0000    -0.000    -0.000    -0.000  0.4812  0.2964  0.8250
              Bcc     0.0000     0.000     0.000     0.000 -0.5341  0.8454  0.0078
 
              Baa    -0.0000    -0.000    -0.000    -0.000  0.9730  0.2286 -0.0325
    10 H(1)   Bbb     0.0000     0.000     0.000     0.000 -0.0266  0.2507  0.9677
              Bcc     0.0000     0.000     0.000     0.000 -0.2293  0.9407 -0.2500
 
              Baa    -0.0000    -0.000    -0.000    -0.000  0.7324 -0.6808 -0.0095
    11 H(1)   Bbb     0.0000     0.000     0.000     0.000  0.1172  0.1123  0.9867
              Bcc     0.0000     0.000     0.000     0.000  0.6707  0.7238 -0.1620
 
              Baa    -0.0000    -0.000    -0.000    -0.000  0.9920 -0.1258  0.0109
    12 H(1)   Bbb     0.0000     0.000     0.000     0.000  0.1247  0.9897  0.0696
              Bcc     0.0000     0.000     0.000     0.000 -0.0195 -0.0677  0.9975
 
              Baa    -0.0000    -0.000    -0.000    -0.000  0.0852 -0.6049  0.7917
    13 H(1)   Bbb     0.0000     0.000     0.000     0.000  0.8935  0.3980  0.2079
              Bcc     0.0000     0.000     0.000     0.000 -0.4409  0.6897  0.5744
 
              Baa    -0.0000    -0.000    -0.000    -0.000 -0.1296  0.7099  0.6923
    14 H(1)   Bbb     0.0000     0.000     0.000     0.000  0.8771  0.4077 -0.2539
              Bcc     0.0000     0.000     0.000     0.000  0.4625 -0.5743  0.6755
 
              Baa    -0.0000    -0.000    -0.000    -0.000 -0.4137  0.8885 -0.1987
    15 H(1)   Bbb     0.0000     0.000     0.000     0.000  0.8848  0.4438  0.1422
              Bcc     0.0000     0.000     0.000     0.000 -0.2146  0.1170  0.9697
 

 ---------------------------------------------------------------------------------

 1\1\GINC-NODE31\SP\UB3LYP\6-31+G(d)\C7H8\YANZ\12-Oct-2023\0\\# ub3lyp/
 6-31+g(d)\\tmpdir/M3_conf_0_6.gjf\\0,1\C,0,0.,0.,0.\C,0,1.5248,0.,0.\H
 ,0,1.93699,0.,1.01154\C,0,-0.82802,-0.07439,1.11123\C,0,-0.54673,0.015
 56,-1.29167\C,0,-2.2122,-0.10842,0.93314\H,0,-0.40127,-0.09794,2.11078
 \C,0,-1.9207,-0.02603,-1.46665\C,0,-2.75562,-0.08359,-0.34751\H,0,-2.8
 6665,-0.15397,1.79872\H,0,-2.34472,-0.01547,-2.46759\H,0,-3.83323,-0.1
 1062,-0.47948\H,0,1.73578,-0.92898,-0.56327\H,0,1.86396,0.84454,-0.617
 66\H,0,0.20992,0.04991,-2.0866\\Version=ES64L-G16RevA.03\State=1-A\HF=
 -271.5685218\S2=0.\S2-1=0.\S2A=0.\RMSD=6.220e-09\Dipole=0.1568167,-0.0
 153722,-0.0099314\Quadrupole=1.7087772,-3.590979,1.8822018,0.2019726,-
 0.1258671,-0.1568545\PG=C01 [X(C7H8)]\\@


 GOD DOES NOT PLAY WITH DICE.
               -- A. EINSTEIN
 Job cpu time:       0 days  0 hours  2 minutes 46.5 seconds.
 Elapsed time:       0 days  0 hours  0 minutes 44.4 seconds.
 File lengths (MBytes):  RWF=     20 Int=      0 D2E=      0 Chk=      3 Scr=      1
 Normal termination of Gaussian 16 at Thu Oct 12 15:28:07 2023.
