 Entering Gaussian System, Link 0=g16
 Initial command:
 /share/apps/gaussian/g16/l1.exe "/tmp/58287.mgr/Gau-22129.inp" -scrdir="/tmp/58287.mgr/"
 Entering Link 1 = /share/apps/gaussian/g16/l1.exe PID=     22130.
  
 Copyright (c) 1988,1990,1992,1993,1995,1998,2003,2009,2016,
            Gaussian, Inc.  All Rights Reserved.
  
 This is part of the Gaussian(R) 16 program.  It is based on
 the Gaussian(R) 09 system (copyright 2009, Gaussian, Inc.),
 the Gaussian(R) 03 system (copyright 2003, Gaussian, Inc.),
 the Gaussian(R) 98 system (copyright 1998, Gaussian, Inc.),
 the Gaussian(R) 94 system (copyright 1995, Gaussian, Inc.),
 the Gaussian 92(TM) system (copyright 1992, Gaussian, Inc.),
 the Gaussian 90(TM) system (copyright 1990, Gaussian, Inc.),
 the Gaussian 88(TM) system (copyright 1988, Gaussian, Inc.),
 the Gaussian 86(TM) system (copyright 1986, Carnegie Mellon
 University), and the Gaussian 82(TM) system (copyright 1983,
 Carnegie Mellon University). Gaussian is a federally registered
 trademark of Gaussian, Inc.
  
 This software contains proprietary and confidential information,
 including trade secrets, belonging to Gaussian, Inc.
  
 This software is provided under written license and may be
 used, copied, transmitted, or stored only in accord with that
 written license.
  
 The following legend is applicable only to US Government
 contracts under FAR:
  
                    RESTRICTED RIGHTS LEGEND
  
 Use, reproduction and disclosure by the US Government is
 subject to restrictions as set forth in subparagraphs (a)
 and (c) of the Commercial Computer Software - Restricted
 Rights clause in FAR 52.227-19.
  
 Gaussian, Inc.
 340 Quinnipiac St., Bldg. 40, Wallingford CT 06492
  
  
 ---------------------------------------------------------------
 Warning -- This program may not be used in any manner that
 competes with the business of Gaussian, Inc. or will provide
 assistance to any competitor of Gaussian, Inc.  The licensee
 of this program is prohibited from giving any competitor of
 Gaussian, Inc. access to this program.  By using this program,
 the user acknowledges that Gaussian, Inc. is engaged in the
 business of creating and licensing software in the field of
 computational chemistry and represents and warrants to the
 licensee that it is not a competitor of Gaussian, Inc. and that
 it will not use this program in any manner prohibited above.
 ---------------------------------------------------------------
  

 Cite this work as:
 Gaussian 16, Revision A.03,
 M. J. Frisch, G. W. Trucks, H. B. Schlegel, G. E. Scuseria, 
 M. A. Robb, J. R. Cheeseman, G. Scalmani, V. Barone, 
 G. A. Petersson, H. Nakatsuji, X. Li, M. Caricato, A. V. Marenich, 
 J. Bloino, B. G. Janesko, R. Gomperts, B. Mennucci, H. P. Hratchian, 
 J. V. Ortiz, A. F. Izmaylov, J. L. Sonnenberg, D. Williams-Young, 
 F. Ding, F. Lipparini, F. Egidi, J. Goings, B. Peng, A. Petrone, 
 T. Henderson, D. Ranasinghe, V. G. Zakrzewski, J. Gao, N. Rega, 
 G. Zheng, W. Liang, M. Hada, M. Ehara, K. Toyota, R. Fukuda, 
 J. Hasegawa, M. Ishida, T. Nakajima, Y. Honda, O. Kitao, H. Nakai, 
 T. Vreven, K. Throssell, J. A. Montgomery, Jr., J. E. Peralta, 
 F. Ogliaro, M. J. Bearpark, J. J. Heyd, E. N. Brothers, K. N. Kudin, 
 V. N. Staroverov, T. A. Keith, R. Kobayashi, J. Normand, 
 K. Raghavachari, A. P. Rendell, J. C. Burant, S. S. Iyengar, 
 J. Tomasi, M. Cossi, J. M. Millam, M. Klene, C. Adamo, R. Cammi, 
 J. W. Ochterski, R. L. Martin, K. Morokuma, O. Farkas, 
 J. B. Foresman, and D. J. Fox, Gaussian, Inc., Wallingford CT, 2016.
 
 ******************************************
 Gaussian 16:  ES64L-G16RevA.03 25-Dec-2016
                12-Oct-2023 
 ******************************************
 %nprocshared=4
 Will use up to    4 processors via shared memory.
 %mem=4GB
 ------------------
 # ub3lyp/6-31+g(d)
 ------------------
 1/38=1,172=1/1;
 2/12=2,17=6,18=5,40=1/2;
 3/5=1,6=6,7=11,11=2,25=1,30=1,74=-5,116=2/1,2,3;
 4//1;
 5/5=2,38=5/2;
 6/7=2,8=2,9=2,10=2,28=1/1;
 99/5=1,9=1/99;
 ----------------------
 tmpdir/M3_conf_0_7.gjf
 ----------------------
 Symbolic Z-matrix:
 Charge =  0 Multiplicity = 1
 C                     0.        0.        0. 
 C                     1.5248    0.        0. 
 C                     2.02602   0.        1.43446 
 C                    -0.82802  -0.85303  -0.71603 
 C                    -0.54673   1.03341   0.77506 
 C                    -2.2122   -0.6892   -0.63837 
 H                    -0.40127  -1.64594  -1.3251 
 C                    -1.9207    1.1992    0.84478 
 C                    -2.75562   0.32984   0.13768 
 H                    -2.86665  -1.36098  -1.1861 
 H                    -2.34472   2.00089   1.44419 
 H                    -3.83323   0.45232   0.19377 
 H                     1.73578   1.00305  -0.41732 
 H                     1.93787  -0.81619  -0.59693 
 O                     1.57138   0.85026   2.11195 
 H                     2.76098  -0.72168   1.77379 
 H                     0.20992   1.65477   1.27206 
 
                          Input orientation:                          
 ---------------------------------------------------------------------
 Center     Atomic      Atomic             Coordinates (Angstroms)
 Number     Number       Type             X           Y           Z
 ---------------------------------------------------------------------
      1          6           0        0.000000    0.000000    0.000000
      2          6           0        1.524800    0.000000    0.000000
      3          6           0        2.026020    0.000000    1.434460
      4          6           0       -0.828020   -0.853030   -0.716030
      5          6           0       -0.546730    1.033410    0.775060
      6          6           0       -2.212200   -0.689200   -0.638370
      7          1           0       -0.401270   -1.645940   -1.325100
      8          6           0       -1.920700    1.199200    0.844780
      9          6           0       -2.755620    0.329840    0.137680
     10          1           0       -2.866650   -1.360980   -1.186100
     11          1           0       -2.344720    2.000890    1.444190
     12          1           0       -3.833230    0.452320    0.193770
     13          1           0        1.735780    1.003050   -0.417320
     14          1           0        1.937870   -0.816190   -0.596930
     15          8           0        1.571380    0.850260    2.111950
     16          1           0        2.760980   -0.721680    1.773790
     17          1           0        0.209920    1.654770    1.272060
 ---------------------------------------------------------------------
                    Distance matrix (angstroms):
                    1          2          3          4          5
     1  C    0.000000
     2  C    1.524800   0.000000
     3  C    2.482425   1.519506   0.000000
     4  C    1.387795   2.603098   3.673937   0.000000
     5  C    1.402700   2.441289   2.849875   2.420977   0.000000
     6  C    2.403402   3.853269   4.768032   1.396003   2.781899
     7  H    2.150820   2.859153   4.026913   1.087101   3.407455
     8  C    2.416779   3.744757   4.166822   2.800308   1.385691
     9  C    2.778703   4.295317   4.965331   2.417363   2.404259
    10  H    3.387740   4.748045   5.714702   2.152903   3.867981
    11  H    3.403962   4.589382   4.806977   3.887388   2.148609
    12  H    3.864685   5.380579   6.006223   3.400436   3.387720
    13  H    2.047730   1.106697   2.125897   3.179203   2.575373
    14  H    2.185825   1.092300   2.191000   2.768698   3.387715
    15  O    2.766317   2.277157   1.178402   4.081150   2.511416
    16  H    3.360084   2.279319   1.084497   4.370055   3.875403
    17  H    2.097729   2.466842   2.462287   3.364355   1.098006
                    6          7          8          9         10
     6  C    0.000000
     7  H    2.160189   0.000000
     8  C    2.418835   3.887399   0.000000
     9  C    1.391403   3.403880   1.397451   0.000000
    10  H    1.086095   2.485683   3.402031   2.150254   0.000000
    11  H    3.404585   4.974468   1.087103   2.160605   4.300350
    12  H    2.150177   4.299769   2.153930   1.085998   2.475152
    13  H    4.301060   3.522527   3.873140   4.575359   5.230872
    14  H    4.152219   2.586560   4.585726   4.886910   4.871071
    15  O    4.924396   4.683554   3.731233   4.784507   5.955067
    16  H    5.527395   4.522964   5.144994   5.849395   6.390608
    17  H    3.874352   4.244229   2.220282   3.440448   4.960099
                   11         12         13         14         15
    11  H    0.000000
    12  H    2.485414   0.000000
    13  H    4.594713   5.629441   0.000000
    14  H    5.517489   5.961537   1.839221   0.000000
    15  O    4.135903   5.748702   2.539208   3.201469   0.000000
    16  H    5.795619   6.881740   2.970975   2.511325   2.000124
    17  H    2.583721   4.353810   2.367909   3.547475   1.790593
                   16         17
    16  H    0.000000
    17  H    3.522379   0.000000
 Stoichiometry    C8H8O
 Framework group  C1[X(C8H8O)]
 Deg. of freedom    45
 Full point group                 C1      NOp   1
 Largest Abelian subgroup         C1      NOp   1
 Largest concise Abelian subgroup C1      NOp   1
                         Standard orientation:                         
 ---------------------------------------------------------------------
 Center     Atomic      Atomic             Coordinates (Angstroms)
 Number     Number       Type             X           Y           Z
 ---------------------------------------------------------------------
      1          6           0        0.107404    0.530038    0.204942
      2          6           0        1.542960    0.965111    0.478634
      3          6           0        2.487210    0.154730   -0.393473
      4          6           0       -0.969418    1.358728   -0.077373
      5          6           0       -0.077622   -0.854704    0.330726
      6          6           0       -2.235203    0.799032   -0.260003
      7          1           0       -0.825356    2.432839   -0.162933
      8          6           0       -1.336268   -1.407564    0.156665
      9          6           0       -2.417823   -0.575501   -0.144631
     10          1           0       -3.080131    1.440229   -0.493594
     11          1           0       -1.480308   -2.480538    0.255512
     12          1           0       -3.405065   -1.004833   -0.287525
     13          1           0        1.676458    0.610031    1.518285
     14          1           0        1.676462    2.043325    0.365722
     15          8           0        2.343555   -1.012415   -0.317533
     16          1           0        3.238884    0.637254   -1.008526
     17          1           0        0.843185   -1.398206    0.580399
 ---------------------------------------------------------------------
 Rotational constants (GHZ):           3.7908701           1.2369474           0.9822005
 Standard basis: 6-31+G(d) (6D, 7F)
 There are   187 symmetry adapted cartesian basis functions of A   symmetry.
 There are   187 symmetry adapted basis functions of A   symmetry.
   187 basis functions,   320 primitive gaussians,   187 cartesian basis functions
    32 alpha electrons       32 beta electrons
       nuclear repulsion energy       406.7477863813 Hartrees.
 NAtoms=   17 NActive=   17 NUniq=   17 SFac= 1.00D+00 NAtFMM=   60 NAOKFM=F Big=F
 Integral buffers will be    131072 words long.
 Raffenetti 2 integral format.
 Two-electron integral symmetry is turned on.
 One-electron integrals computed using PRISM.
 NBasis=   187 RedAO= T EigKep=  3.72D-06  NBF=   187
 NBsUse=   187 1.00D-06 EigRej= -1.00D+00 NBFU=   187
 ExpMin= 4.38D-02 ExpMax= 5.48D+03 ExpMxC= 8.25D+02 IAcc=3 IRadAn=         5 AccDes= 0.00D+00
 Harris functional with IExCor=  402 and IRadAn=       5 diagonalized for initial guess.
 HarFok:  IExCor=  402 AccDes= 0.00D+00 IRadAn=         5 IDoV= 1 UseB2=F ITyADJ=14
 ICtDFT=  3500011 ScaDFX=  1.000000  1.000000  1.000000  1.000000
 FoFCou: FMM=F IPFlag=           0 FMFlag=      100000 FMFlg1=           0
         NFxFlg=           0 DoJE=T BraDBF=F KetDBF=T FulRan=T
         wScrn=  0.000000 ICntrl=       500 IOpCl=  0 I1Cent=   200000004 NGrid=           0
         NMat0=    1 NMatS0=      1 NMatT0=    0 NMatD0=    1 NMtDS0=    0 NMtDT0=    0
 Petite list used in FoFCou.
 Initial guess <Sx>= 0.0000 <Sy>= 0.0000 <Sz>= 0.0000 <S**2>=-0.0000 S=-0.0000
 Keep R1 and R2 ints in memory in canonical form, NReq=313055663.
 Requested convergence on RMS density matrix=1.00D-08 within 128 cycles.
 Requested convergence on MAX density matrix=1.00D-06.
 Requested convergence on             energy=1.00D-06.
 No special actions if energy rises.
 SCF Done:  E(UB3LYP) =  -384.864517466     A.U. after   15 cycles
            NFock= 15  Conv=0.34D-08     -V/T= 2.0087
 <Sx>= 0.0000 <Sy>= 0.0000 <Sz>= 0.0000 <S**2>=-0.0000 S=-0.0000
 <L.S>= 0.000000000000E+00
 Annihilation of the first spin contaminant:
 S**2 before annihilation    -0.0000,   after    -0.0000

 **********************************************************************

            Population analysis using the SCF density.

 **********************************************************************

 Orbital symmetries:
 Alpha Orbitals:
       Occupied  (A) (A) (A) (A) (A) (A) (A) (A) (A) (A) (A) (A)
                 (A) (A) (A) (A) (A) (A) (A) (A) (A) (A) (A) (A)
                 (A) (A) (A) (A) (A) (A) (A) (A)
       Virtual   (A) (A) (A) (A) (A) (A) (A) (A) (A) (A) (A) (A)
                 (A) (A) (A) (A) (A) (A) (A) (A) (A) (A) (A) (A)
                 (A) (A) (A) (A) (A) (A) (A) (A) (A) (A) (A) (A)
                 (A) (A) (A) (A) (A) (A) (A) (A) (A) (A) (A) (A)
                 (A) (A) (A) (A) (A) (A) (A) (A) (A) (A) (A) (A)
                 (A) (A) (A) (A) (A) (A) (A) (A) (A) (A) (A) (A)
                 (A) (A) (A) (A) (A) (A) (A) (A) (A) (A) (A) (A)
                 (A) (A) (A) (A) (A) (A) (A) (A) (A) (A) (A) (A)
                 (A) (A) (A) (A) (A) (A) (A) (A) (A) (A) (A) (A)
                 (A) (A) (A) (A) (A) (A) (A) (A) (A) (A) (A) (A)
                 (A) (A) (A) (A) (A) (A) (A) (A) (A) (A) (A) (A)
                 (A) (A) (A) (A) (A) (A) (A) (A) (A) (A) (A) (A)
                 (A) (A) (A) (A) (A) (A) (A) (A) (A) (A) (A)
 Beta  Orbitals:
       Occupied  (A) (A) (A) (A) (A) (A) (A) (A) (A) (A) (A) (A)
                 (A) (A) (A) (A) (A) (A) (A) (A) (A) (A) (A) (A)
                 (A) (A) (A) (A) (A) (A) (A) (A)
       Virtual   (A) (A) (A) (A) (A) (A) (A) (A) (A) (A) (A) (A)
                 (A) (A) (A) (A) (A) (A) (A) (A) (A) (A) (A) (A)
                 (A) (A) (A) (A) (A) (A) (A) (A) (A) (A) (A) (A)
                 (A) (A) (A) (A) (A) (A) (A) (A) (A) (A) (A) (A)
                 (A) (A) (A) (A) (A) (A) (A) (A) (A) (A) (A) (A)
                 (A) (A) (A) (A) (A) (A) (A) (A) (A) (A) (A) (A)
                 (A) (A) (A) (A) (A) (A) (A) (A) (A) (A) (A) (A)
                 (A) (A) (A) (A) (A) (A) (A) (A) (A) (A) (A) (A)
                 (A) (A) (A) (A) (A) (A) (A) (A) (A) (A) (A) (A)
                 (A) (A) (A) (A) (A) (A) (A) (A) (A) (A) (A) (A)
                 (A) (A) (A) (A) (A) (A) (A) (A) (A) (A) (A) (A)
                 (A) (A) (A) (A) (A) (A) (A) (A) (A) (A) (A) (A)
                 (A) (A) (A) (A) (A) (A) (A) (A) (A) (A) (A)
 The electronic state is 1-A.
 Alpha  occ. eigenvalues --  -19.16958 -10.29364 -10.20985 -10.20352 -10.19520
 Alpha  occ. eigenvalues --  -10.19334 -10.19093 -10.18995 -10.17729  -1.09404
 Alpha  occ. eigenvalues --   -0.86190  -0.79105  -0.74689  -0.71551  -0.62274
 Alpha  occ. eigenvalues --   -0.60520  -0.57928  -0.51196  -0.50532  -0.47952
 Alpha  occ. eigenvalues --   -0.46595  -0.45171  -0.43585  -0.41609  -0.40655
 Alpha  occ. eigenvalues --   -0.38205  -0.36217  -0.34918  -0.33842  -0.27002
 Alpha  occ. eigenvalues --   -0.25083  -0.24436
 Alpha virt. eigenvalues --   -0.05347  -0.00922  -0.00733   0.00568   0.01549
 Alpha virt. eigenvalues --    0.02743   0.02852   0.04385   0.04469   0.05785
 Alpha virt. eigenvalues --    0.06632   0.06752   0.07649   0.07817   0.09778
 Alpha virt. eigenvalues --    0.10271   0.10873   0.11264   0.12737   0.13451
 Alpha virt. eigenvalues --    0.14442   0.14609   0.15795   0.16124   0.16965
 Alpha virt. eigenvalues --    0.17326   0.17698   0.18290   0.18676   0.20124
 Alpha virt. eigenvalues --    0.20748   0.21286   0.22342   0.22542   0.23302
 Alpha virt. eigenvalues --    0.23857   0.24840   0.25062   0.25543   0.26264
 Alpha virt. eigenvalues --    0.27259   0.27811   0.29473   0.30106   0.30772
 Alpha virt. eigenvalues --    0.31493   0.32321   0.32961   0.35140   0.35540
 Alpha virt. eigenvalues --    0.36318   0.37710   0.40049   0.40874   0.46051
 Alpha virt. eigenvalues --    0.56697   0.60886   0.64680   0.67298   0.68174
 Alpha virt. eigenvalues --    0.68853   0.70164   0.72189   0.72730   0.73121
 Alpha virt. eigenvalues --    0.74274   0.74829   0.75926   0.76647   0.78232
 Alpha virt. eigenvalues --    0.79161   0.80730   0.81897   0.85605   0.87250
 Alpha virt. eigenvalues --    0.90390   0.91805   0.93722   0.95379   0.96338
 Alpha virt. eigenvalues --    0.99242   1.00904   1.03711   1.05804   1.08631
 Alpha virt. eigenvalues --    1.09095   1.11147   1.13102   1.16591   1.19216
 Alpha virt. eigenvalues --    1.20758   1.22016   1.24851   1.26875   1.28433
 Alpha virt. eigenvalues --    1.33042   1.34073   1.42675   1.43859   1.45731
 Alpha virt. eigenvalues --    1.47693   1.49048   1.50332   1.51595   1.53955
 Alpha virt. eigenvalues --    1.56373   1.65003   1.67256   1.79468   1.82053
 Alpha virt. eigenvalues --    1.84539   1.85478   1.89799   1.91086   1.95404
 Alpha virt. eigenvalues --    1.96137   1.96743   2.02514   2.08791   2.09884
 Alpha virt. eigenvalues --    2.13131   2.15756   2.16566   2.17675   2.21001
 Alpha virt. eigenvalues --    2.24764   2.30397   2.31440   2.34704   2.36522
 Alpha virt. eigenvalues --    2.37944   2.45553   2.57633   2.61074   2.63932
 Alpha virt. eigenvalues --    2.66281   2.66758   2.75024   2.75356   2.77023
 Alpha virt. eigenvalues --    2.79740   2.90510   2.92927   3.06036   3.12481
 Alpha virt. eigenvalues --    3.41668   4.19724   4.24672   4.25232   4.27349
 Alpha virt. eigenvalues --    4.30743   4.38980   4.40695   4.51699   4.72380
  Beta  occ. eigenvalues --  -19.16958 -10.29364 -10.20985 -10.20352 -10.19520
  Beta  occ. eigenvalues --  -10.19334 -10.19093 -10.18995 -10.17729  -1.09404
  Beta  occ. eigenvalues --   -0.86190  -0.79105  -0.74689  -0.71551  -0.62274
  Beta  occ. eigenvalues --   -0.60520  -0.57928  -0.51196  -0.50532  -0.47952
  Beta  occ. eigenvalues --   -0.46595  -0.45171  -0.43585  -0.41609  -0.40655
  Beta  occ. eigenvalues --   -0.38205  -0.36217  -0.34918  -0.33842  -0.27002
  Beta  occ. eigenvalues --   -0.25083  -0.24436
  Beta virt. eigenvalues --   -0.05347  -0.00922  -0.00733   0.00568   0.01549
  Beta virt. eigenvalues --    0.02743   0.02852   0.04385   0.04469   0.05785
  Beta virt. eigenvalues --    0.06632   0.06752   0.07649   0.07817   0.09778
  Beta virt. eigenvalues --    0.10271   0.10873   0.11264   0.12737   0.13451
  Beta virt. eigenvalues --    0.14442   0.14609   0.15795   0.16124   0.16965
  Beta virt. eigenvalues --    0.17326   0.17698   0.18290   0.18676   0.20124
  Beta virt. eigenvalues --    0.20748   0.21286   0.22342   0.22542   0.23302
  Beta virt. eigenvalues --    0.23857   0.24840   0.25062   0.25543   0.26264
  Beta virt. eigenvalues --    0.27259   0.27811   0.29473   0.30106   0.30772
  Beta virt. eigenvalues --    0.31493   0.32321   0.32961   0.35140   0.35540
  Beta virt. eigenvalues --    0.36318   0.37710   0.40049   0.40874   0.46051
  Beta virt. eigenvalues --    0.56697   0.60886   0.64680   0.67298   0.68174
  Beta virt. eigenvalues --    0.68853   0.70164   0.72189   0.72730   0.73121
  Beta virt. eigenvalues --    0.74274   0.74829   0.75926   0.76647   0.78232
  Beta virt. eigenvalues --    0.79161   0.80730   0.81897   0.85605   0.87250
  Beta virt. eigenvalues --    0.90390   0.91805   0.93722   0.95379   0.96338
  Beta virt. eigenvalues --    0.99242   1.00904   1.03711   1.05804   1.08631
  Beta virt. eigenvalues --    1.09095   1.11147   1.13102   1.16591   1.19216
  Beta virt. eigenvalues --    1.20758   1.22016   1.24851   1.26875   1.28433
  Beta virt. eigenvalues --    1.33042   1.34073   1.42675   1.43859   1.45731
  Beta virt. eigenvalues --    1.47693   1.49048   1.50332   1.51595   1.53955
  Beta virt. eigenvalues --    1.56373   1.65003   1.67256   1.79468   1.82053
  Beta virt. eigenvalues --    1.84539   1.85478   1.89799   1.91086   1.95404
  Beta virt. eigenvalues --    1.96137   1.96743   2.02514   2.08791   2.09884
  Beta virt. eigenvalues --    2.13131   2.15756   2.16566   2.17675   2.21001
  Beta virt. eigenvalues --    2.24764   2.30397   2.31440   2.34704   2.36522
  Beta virt. eigenvalues --    2.37944   2.45553   2.57633   2.61074   2.63932
  Beta virt. eigenvalues --    2.66281   2.66758   2.75024   2.75356   2.77023
  Beta virt. eigenvalues --    2.79740   2.90510   2.92927   3.06036   3.12481
  Beta virt. eigenvalues --    3.41668   4.19724   4.24672   4.25232   4.27349
  Beta virt. eigenvalues --    4.30743   4.38980   4.40695   4.51699   4.72380
          Condensed to atoms (all electrons):
               1          2          3          4          5          6
     1  C   10.412205  -0.844629  -0.146967  -2.602483  -0.470240   0.060814
     2  C   -0.844629   6.791284   0.169605   0.243829  -0.027054  -0.096575
     3  C   -0.146967   0.169605   4.896756   0.095416   0.022339   0.007005
     4  C   -2.602483   0.243829   0.095416  13.786876  -4.742396  -0.346102
     5  C   -0.470240  -0.027054   0.022339  -4.742396  11.958125  -0.133322
     6  C    0.060814  -0.096575   0.007005  -0.346102  -0.133322   5.801255
     7  H    0.050846  -0.021996   0.000401   0.188732   0.032956   0.025625
     8  C   -0.097830  -0.144068   0.015495  -0.616204  -0.724552   0.190643
     9  C   -0.686348   0.009329   0.003942   0.583355   0.211234   0.326234
    10  H    0.029791  -0.001998  -0.000168  -0.033910  -0.005081   0.296088
    11  H    0.031992  -0.001939  -0.000282  -0.010958  -0.032799   0.014191
    12  H    0.003937   0.001082  -0.000004   0.000817   0.009722   0.007415
    13  H   -0.063001   0.444664  -0.058254  -0.041889   0.010380   0.003234
    14  H   -0.141510   0.405412  -0.005286   0.030464  -0.020503   0.007797
    15  O    0.017836  -0.165314   0.465284  -0.115814  -0.155167   0.036457
    16  H   -0.025954  -0.115674   0.411036  -0.035371   0.023974   0.004321
    17  H   -0.007092  -0.014219  -0.015917   0.071404   0.292411  -0.014605
               7          8          9         10         11         12
     1  C    0.050846  -0.097830  -0.686348   0.029791   0.031992   0.003937
     2  C   -0.021996  -0.144068   0.009329  -0.001998  -0.001939   0.001082
     3  C    0.000401   0.015495   0.003942  -0.000168  -0.000282  -0.000004
     4  C    0.188732  -0.616204   0.583355  -0.033910  -0.010958   0.000817
     5  C    0.032956  -0.724552   0.211234  -0.005081  -0.032799   0.009722
     6  C    0.025625   0.190643   0.326234   0.296088   0.014191   0.007415
     7  H    0.555621  -0.013632   0.012261  -0.004808   0.000019  -0.000157
     8  C   -0.013632   6.846341   0.209452   0.009285   0.313377  -0.006079
     9  C    0.012261   0.209452   5.316255  -0.002220  -0.023886   0.274376
    10  H   -0.004808   0.009285  -0.002220   0.542179  -0.000167  -0.005123
    11  H    0.000019   0.313377  -0.023886  -0.000167   0.540584  -0.004818
    12  H   -0.000157  -0.006079   0.274376  -0.005123  -0.004818   0.544837
    13  H    0.000051  -0.001444  -0.001937   0.000003  -0.000008   0.000000
    14  H    0.003494   0.011555  -0.001273  -0.000002   0.000003  -0.000000
    15  O    0.000226   0.149092  -0.034700   0.000002   0.000610   0.000027
    16  H    0.000001   0.018960  -0.002431  -0.000000   0.000000   0.000000
    17  H   -0.000196  -0.024985   0.015128   0.000016  -0.004467  -0.000139
              13         14         15         16         17
     1  C   -0.063001  -0.141510   0.017836  -0.025954  -0.007092
     2  C    0.444664   0.405412  -0.165314  -0.115674  -0.014219
     3  C   -0.058254  -0.005286   0.465284   0.411036  -0.015917
     4  C   -0.041889   0.030464  -0.115814  -0.035371   0.071404
     5  C    0.010380  -0.020503  -0.155167   0.023974   0.292411
     6  C    0.003234   0.007797   0.036457   0.004321  -0.014605
     7  H    0.000051   0.003494   0.000226   0.000001  -0.000196
     8  C   -0.001444   0.011555   0.149092   0.018960  -0.024985
     9  C   -0.001937  -0.001273  -0.034700  -0.002431   0.015128
    10  H    0.000003  -0.000002   0.000002  -0.000000   0.000016
    11  H   -0.000008   0.000003   0.000610   0.000000  -0.004467
    12  H    0.000000  -0.000000   0.000027   0.000000  -0.000139
    13  H    0.479357  -0.023282  -0.008754   0.002671   0.000240
    14  H   -0.023282   0.525159   0.009585   0.003111   0.000157
    15  O   -0.008754   0.009585   8.201877  -0.056020  -0.039378
    16  H    0.002671   0.003111  -0.056020   0.601396  -0.000406
    17  H    0.000240   0.000157  -0.039378  -0.000406   0.505048
          Atomic-Atomic Spin Densities.
               1          2          3          4          5          6
     1  C   -0.000000   0.000000  -0.000000  -0.000000   0.000000  -0.000000
     2  C    0.000000  -0.000000  -0.000000  -0.000000  -0.000000   0.000000
     3  C   -0.000000  -0.000000  -0.000000  -0.000000   0.000000  -0.000000
     4  C   -0.000000  -0.000000  -0.000000   0.000000  -0.000000  -0.000000
     5  C    0.000000  -0.000000   0.000000  -0.000000  -0.000000   0.000000
     6  C   -0.000000   0.000000  -0.000000  -0.000000   0.000000  -0.000000
     7  H    0.000000  -0.000000   0.000000  -0.000000   0.000000  -0.000000
     8  C   -0.000000   0.000000  -0.000000  -0.000000   0.000000  -0.000000
     9  C    0.000000  -0.000000   0.000000  -0.000000  -0.000000   0.000000
    10  H   -0.000000   0.000000   0.000000  -0.000000  -0.000000   0.000000
    11  H   -0.000000  -0.000000   0.000000   0.000000  -0.000000   0.000000
    12  H   -0.000000  -0.000000   0.000000   0.000000   0.000000  -0.000000
    13  H    0.000000  -0.000000   0.000000   0.000000  -0.000000   0.000000
    14  H    0.000000   0.000000  -0.000000  -0.000000   0.000000  -0.000000
    15  O   -0.000000  -0.000000   0.000000   0.000000   0.000000  -0.000000
    16  H   -0.000000   0.000000  -0.000000   0.000000   0.000000  -0.000000
    17  H   -0.000000   0.000000  -0.000000  -0.000000   0.000000  -0.000000
               7          8          9         10         11         12
     1  C    0.000000  -0.000000   0.000000  -0.000000  -0.000000  -0.000000
     2  C   -0.000000   0.000000  -0.000000   0.000000  -0.000000  -0.000000
     3  C    0.000000  -0.000000   0.000000   0.000000   0.000000   0.000000
     4  C   -0.000000  -0.000000  -0.000000  -0.000000   0.000000   0.000000
     5  C    0.000000   0.000000  -0.000000  -0.000000  -0.000000   0.000000
     6  C   -0.000000  -0.000000   0.000000   0.000000   0.000000  -0.000000
     7  H    0.000000   0.000000  -0.000000  -0.000000  -0.000000  -0.000000
     8  C    0.000000  -0.000000   0.000000   0.000000   0.000000  -0.000000
     9  C   -0.000000   0.000000  -0.000000   0.000000   0.000000   0.000000
    10  H   -0.000000   0.000000   0.000000   0.000000   0.000000  -0.000000
    11  H   -0.000000   0.000000   0.000000   0.000000  -0.000000   0.000000
    12  H   -0.000000  -0.000000   0.000000  -0.000000   0.000000   0.000000
    13  H    0.000000   0.000000  -0.000000  -0.000000  -0.000000   0.000000
    14  H   -0.000000  -0.000000   0.000000   0.000000   0.000000  -0.000000
    15  O   -0.000000  -0.000000   0.000000   0.000000   0.000000  -0.000000
    16  H   -0.000000  -0.000000   0.000000   0.000000   0.000000  -0.000000
    17  H    0.000000  -0.000000   0.000000   0.000000   0.000000   0.000000
              13         14         15         16         17
     1  C    0.000000   0.000000  -0.000000  -0.000000  -0.000000
     2  C   -0.000000   0.000000  -0.000000   0.000000   0.000000
     3  C    0.000000  -0.000000   0.000000  -0.000000  -0.000000
     4  C    0.000000  -0.000000   0.000000   0.000000  -0.000000
     5  C   -0.000000   0.000000   0.000000   0.000000   0.000000
     6  C    0.000000  -0.000000  -0.000000  -0.000000  -0.000000
     7  H    0.000000  -0.000000  -0.000000  -0.000000   0.000000
     8  C    0.000000  -0.000000  -0.000000  -0.000000  -0.000000
     9  C   -0.000000   0.000000   0.000000   0.000000   0.000000
    10  H   -0.000000   0.000000   0.000000   0.000000   0.000000
    11  H   -0.000000   0.000000   0.000000   0.000000   0.000000
    12  H    0.000000  -0.000000  -0.000000  -0.000000   0.000000
    13  H   -0.000000   0.000000  -0.000000   0.000000   0.000000
    14  H    0.000000  -0.000000   0.000000  -0.000000  -0.000000
    15  O   -0.000000   0.000000   0.000000   0.000000  -0.000000
    16  H    0.000000  -0.000000   0.000000  -0.000000  -0.000000
    17  H    0.000000  -0.000000  -0.000000  -0.000000  -0.000000
 Mulliken charges and spin densities:
               1          2
     1  C    0.478634   0.000000
     2  C   -0.631737  -0.000000
     3  C    0.139598   0.000000
     4  C   -0.455765  -0.000000
     5  C   -0.250028   0.000000
     6  C   -0.190477  -0.000000
     7  H    0.170558   0.000000
     8  C   -0.135405   0.000000
     9  C   -0.208771   0.000000
    10  H    0.176113  -0.000000
    11  H    0.178547  -0.000000
    12  H    0.174106   0.000000
    13  H    0.257968   0.000000
    14  H    0.195119   0.000000
    15  O   -0.305849   0.000000
    16  H    0.170386   0.000000
    17  H    0.237002  -0.000000
 Sum of Mulliken charges =  -0.00000  -0.00000
 Mulliken charges and spin densities with hydrogens summed into heavy atoms:
               1          2
     1  C    0.478634   0.000000
     2  C   -0.178649  -0.000000
     3  C    0.309984   0.000000
     4  C   -0.285207  -0.000000
     5  C   -0.013026   0.000000
     6  C   -0.014364  -0.000000
     8  C    0.043142   0.000000
     9  C   -0.034665   0.000000
    15  O   -0.305849   0.000000
 Electronic spatial extent (au):  <R**2>=           1178.2723
 Charge=              0.0000 electrons
 Dipole moment (field-independent basis, Debye):
    X=              0.5769    Y=              2.0808    Z=              0.1767  Tot=              2.1665
 Quadrupole moment (field-independent basis, Debye-Ang):
   XX=            -49.0646   YY=            -51.6357   ZZ=            -55.5624
   XY=              5.6892   XZ=              1.3682   YZ=             -1.8098
 Traceless Quadrupole moment (field-independent basis, Debye-Ang):
   XX=              3.0229   YY=              0.4519   ZZ=             -3.4748
   XY=              5.6892   XZ=              1.3682   YZ=             -1.8098
 Octapole moment (field-independent basis, Debye-Ang**2):
  XXX=              8.1093  YYY=             -0.6367  ZZZ=             -0.4248  XYY=             -4.6597
  XXY=             12.2130  XXZ=             -5.0995  XZZ=             11.9198  YZZ=             -0.6010
  YYZ=              0.3427  XYZ=             -2.3144
 Hexadecapole moment (field-independent basis, Debye-Ang**3):
 XXXX=          -1040.8643 YYYY=           -379.7256 ZZZZ=           -108.2349 XXXY=             30.2250
 XXXZ=              4.3723 YYYX=              2.3318 YYYZ=             -5.8449 ZZZX=             -3.4665
 ZZZY=              1.7097 XXYY=           -253.8681 XXZZ=           -208.1687 YYZZ=            -92.2648
 XXYZ=            -11.4298 YYXZ=              3.5321 ZZXY=             -2.1417
 N-N= 4.067477863813D+02 E-N=-1.707378473067D+03  KE= 3.815459062417D+02
                          Isotropic Fermi Contact Couplings
        Atom                 a.u.       MegaHertz       Gauss      10(-4) cm-1
     1  C(13)              0.00000       0.00000       0.00000       0.00000
     2  C(13)             -0.00000      -0.00000      -0.00000      -0.00000
     3  C(13)              0.00000       0.00000       0.00000       0.00000
     4  C(13)             -0.00000      -0.00000      -0.00000      -0.00000
     5  C(13)             -0.00000      -0.00000      -0.00000      -0.00000
     6  C(13)             -0.00000      -0.00000      -0.00000      -0.00000
     7  H(1)               0.00000       0.00000       0.00000       0.00000
     8  C(13)             -0.00000      -0.00000      -0.00000      -0.00000
     9  C(13)             -0.00000      -0.00000      -0.00000      -0.00000
    10  H(1)              -0.00000      -0.00000      -0.00000      -0.00000
    11  H(1)              -0.00000      -0.00000      -0.00000      -0.00000
    12  H(1)               0.00000       0.00000       0.00000       0.00000
    13  H(1)              -0.00000      -0.00000      -0.00000      -0.00000
    14  H(1)               0.00000       0.00000       0.00000       0.00000
    15  O(17)             -0.00000       0.00000       0.00000       0.00000
    16  H(1)              -0.00000      -0.00000      -0.00000      -0.00000
    17  H(1)               0.00000       0.00000       0.00000       0.00000
 --------------------------------------------------------
       Center         ----  Spin Dipole Couplings  ----
                      3XX-RR        3YY-RR        3ZZ-RR
 --------------------------------------------------------
     1   Atom       -0.000000      0.000000      0.000000
     2   Atom       -0.000000      0.000000      0.000000
     3   Atom       -0.000000     -0.000000      0.000000
     4   Atom       -0.000000      0.000000     -0.000000
     5   Atom        0.000000     -0.000000      0.000000
     6   Atom       -0.000000     -0.000000      0.000000
     7   Atom        0.000000     -0.000000      0.000000
     8   Atom       -0.000000      0.000000      0.000000
     9   Atom        0.000000     -0.000000     -0.000000
    10   Atom        0.000000     -0.000000      0.000000
    11   Atom       -0.000000      0.000000     -0.000000
    12   Atom       -0.000000      0.000000      0.000000
    13   Atom       -0.000000     -0.000000      0.000000
    14   Atom        0.000000     -0.000000      0.000000
    15   Atom        0.000000     -0.000000     -0.000000
    16   Atom        0.000000      0.000000     -0.000000
    17   Atom       -0.000000      0.000000      0.000000
 --------------------------------------------------------
                        XY            XZ            YZ
 --------------------------------------------------------
     1   Atom        0.000000     -0.000000      0.000000
     2   Atom       -0.000000      0.000000     -0.000000
     3   Atom       -0.000000      0.000000      0.000000
     4   Atom       -0.000000     -0.000000     -0.000000
     5   Atom        0.000000      0.000000      0.000000
     6   Atom        0.000000     -0.000000     -0.000000
     7   Atom        0.000000     -0.000000      0.000000
     8   Atom       -0.000000      0.000000     -0.000000
     9   Atom        0.000000      0.000000     -0.000000
    10   Atom       -0.000000     -0.000000      0.000000
    11   Atom        0.000000     -0.000000     -0.000000
    12   Atom       -0.000000     -0.000000     -0.000000
    13   Atom       -0.000000      0.000000      0.000000
    14   Atom        0.000000      0.000000     -0.000000
    15   Atom       -0.000000     -0.000000      0.000000
    16   Atom       -0.000000      0.000000      0.000000
    17   Atom        0.000000     -0.000000      0.000000
 --------------------------------------------------------


 ---------------------------------------------------------------------------------
              Anisotropic Spin Dipole Couplings in Principal Axis System
 ---------------------------------------------------------------------------------

       Atom             a.u.   MegaHertz   Gauss  10(-4) cm-1        Axes

              Baa    -0.0000    -0.000    -0.000    -0.000  0.6628 -0.5305  0.5285
     1 C(13)  Bbb    -0.0000    -0.000    -0.000    -0.000  0.7365  0.5893 -0.3320
              Bcc     0.0000     0.000     0.000     0.000 -0.1353  0.6093  0.7813
 
              Baa    -0.0000    -0.000    -0.000    -0.000  0.8908 -0.0310 -0.4532
     2 C(13)  Bbb     0.0000     0.000     0.000     0.000  0.2960  0.7964  0.5274
              Bcc     0.0000     0.000     0.000     0.000  0.3446 -0.6040  0.7186
 
              Baa    -0.0000    -0.000    -0.000    -0.000  0.0918  0.9776 -0.1892
     3 C(13)  Bbb    -0.0000    -0.000    -0.000    -0.000  0.9951 -0.0970 -0.0183
              Bcc     0.0000     0.000     0.000     0.000  0.0362  0.1866  0.9818
 
              Baa    -0.0000    -0.000    -0.000    -0.000  0.7498  0.6056  0.2667
     4 C(13)  Bbb    -0.0000    -0.000    -0.000    -0.000 -0.3334 -0.0025  0.9428
              Bcc     0.0000     0.000     0.000     0.000 -0.5716  0.7958 -0.2000
 
              Baa    -0.0000    -0.000    -0.000    -0.000  0.3876  0.7302 -0.5626
     5 C(13)  Bbb    -0.0000    -0.000    -0.000    -0.000 -0.6395  0.6526  0.4064
              Bcc     0.0000     0.000     0.000     0.000  0.6639  0.2023  0.7199
 
              Baa    -0.0000    -0.000    -0.000    -0.000  0.9538 -0.2451  0.1739
     6 C(13)  Bbb    -0.0000    -0.000    -0.000    -0.000  0.2129  0.9595  0.1844
              Bcc     0.0000     0.000     0.000     0.000 -0.2121 -0.1389  0.9673
 
              Baa    -0.0000    -0.000    -0.000    -0.000 -0.2559  0.9275 -0.2725
     7 H(1)   Bbb     0.0000     0.000     0.000     0.000 -0.0660  0.2644  0.9621
              Bcc     0.0000     0.000     0.000     0.000  0.9644  0.2642 -0.0065
 
              Baa    -0.0000    -0.000    -0.000    -0.000  0.9735  0.2219 -0.0549
     8 C(13)  Bbb     0.0000     0.000     0.000     0.000 -0.0702  0.5189  0.8519
              Bcc     0.0000     0.000     0.000     0.000 -0.2176  0.8255 -0.5208
 
              Baa    -0.0000    -0.000    -0.000    -0.000 -0.1952  0.5757  0.7940
     9 C(13)  Bbb    -0.0000    -0.000    -0.000    -0.000  0.2071  0.8155 -0.5404
              Bcc     0.0000     0.000     0.000     0.000  0.9586 -0.0589  0.2784
 
              Baa    -0.0000    -0.000    -0.000    -0.000 -0.1203  0.9526 -0.2793
    10 H(1)   Bbb    -0.0000    -0.000    -0.000    -0.000  0.8742  0.2350  0.4249
              Bcc     0.0000     0.000     0.000     0.000 -0.4704  0.1930  0.8611
 
              Baa    -0.0000    -0.000    -0.000    -0.000  0.9664 -0.2491  0.0628
    11 H(1)   Bbb    -0.0000    -0.000    -0.000    -0.000 -0.0406  0.0932  0.9948
              Bcc     0.0000     0.000     0.000     0.000  0.2537  0.9640 -0.0800
 
              Baa    -0.0000    -0.000    -0.000    -0.000  0.9621  0.2520  0.1042
    12 H(1)   Bbb     0.0000     0.000     0.000     0.000 -0.1675  0.2446  0.9550
              Bcc     0.0000     0.000     0.000     0.000 -0.2152  0.9363 -0.2775
 
              Baa    -0.0000    -0.000    -0.000    -0.000  0.8098  0.3001 -0.5041
    13 H(1)   Bbb    -0.0000    -0.000    -0.000    -0.000 -0.2479  0.9538  0.1697
              Bcc     0.0000     0.000     0.000     0.000  0.5318 -0.0125  0.8468
 
              Baa    -0.0000    -0.000    -0.000    -0.000 -0.3348  0.8951  0.2946
    14 H(1)   Bbb     0.0000     0.000     0.000     0.000  0.9376  0.2854  0.1985
              Bcc     0.0000     0.000     0.000     0.000 -0.0936 -0.3427  0.9348
 
              Baa    -0.0000     0.000     0.000     0.000  0.5885  0.0412  0.8074
    15 O(17)  Bbb    -0.0000     0.000     0.000     0.000  0.0280  0.9971 -0.0713
              Bcc     0.0000    -0.000    -0.000    -0.000  0.8080 -0.0646 -0.5857
 
              Baa    -0.0000    -0.000    -0.000    -0.000 -0.6270 -0.0624  0.7765
    16 H(1)   Bbb     0.0000     0.000     0.000     0.000  0.1203  0.9771  0.1757
              Bcc     0.0000     0.000     0.000     0.000  0.7697 -0.2035  0.6051
 
              Baa    -0.0000    -0.000    -0.000    -0.000  0.7039 -0.3705  0.6060
    17 H(1)   Bbb     0.0000     0.000     0.000     0.000  0.3260  0.9265  0.1877
              Bcc     0.0000     0.000     0.000     0.000 -0.6310  0.0655  0.7730
 

 ---------------------------------------------------------------------------------

 1\1\GINC-NODE31\SP\UB3LYP\6-31+G(d)\C8H8O1\YANZ\12-Oct-2023\0\\# ub3ly
 p/6-31+g(d)\\tmpdir/M3_conf_0_7.gjf\\0,1\C,0,0.,0.,0.\C,0,1.5248,0.,0.
 \C,0,2.02602,0.,1.43446\C,0,-0.82802,-0.85303,-0.71603\C,0,-0.54673,1.
 03341,0.77506\C,0,-2.2122,-0.6892,-0.63837\H,0,-0.40127,-1.64594,-1.32
 51\C,0,-1.9207,1.1992,0.84478\C,0,-2.75562,0.32984,0.13768\H,0,-2.8666
 5,-1.36098,-1.1861\H,0,-2.34472,2.00089,1.44419\H,0,-3.83323,0.45232,0
 .19377\H,0,1.73578,1.00305,-0.41732\H,0,1.93787,-0.81619,-0.59693\O,0,
 1.57138,0.85026,2.11195\H,0,2.76098,-0.72168,1.77379\H,0,0.20992,1.654
 77,1.27206\\Version=ES64L-G16RevA.03\State=1-A\HF=-384.8645175\S2=0.\S
 2-1=0.\S2A=0.\RMSD=3.367e-09\Dipole=0.4597651,-0.4989142,-0.5160057\Qu
 adrupole=4.414685,-0.1443176,-4.2703674,-2.3174843,-1.469404,0.5024373
 \PG=C01 [X(C8H8O1)]\\@


 IT WAS A GAME, A VERY INTERESTING GAME ONE COULD
 PLAY.  WHENEVER ONE SOLVED ONE OF THE LITTLE PROBLEMS,
 ONE COULD WRITE A PAPER ABOUT IT.  IT WAS VERY EASY IN
 THOSE DAYS FOR ANY SECOND-RATE PHYSICIST TO DO
 FIRST-RATE WORK.  THERE HAS NOT BEEN SUCH A GLORIOUS
 TIME SINCE.  IT IS VERY DIFFICULT NOW FOR A FIRST-RATE
 PHYSICIST TO DO SECOND-RATE WORK.
     P.A.M. DIRAC, ON THE EARLY DAYS OF QUANTUM MECHANICS
                   DIRECTIONS IN PHYSICS, 1978, P. 7
 Job cpu time:       0 days  0 hours  5 minutes 29.0 seconds.
 Elapsed time:       0 days  0 hours  1 minutes 31.3 seconds.
 File lengths (MBytes):  RWF=     27 Int=      0 D2E=      0 Chk=      4 Scr=      1
 Normal termination of Gaussian 16 at Thu Oct 12 15:29:38 2023.
