 Entering Gaussian System, Link 0=g16
 Initial command:
 /share/apps/gaussian/g16/l1.exe "/tmp/58287.mgr/Gau-21733.inp" -scrdir="/tmp/58287.mgr/"
 Entering Link 1 = /share/apps/gaussian/g16/l1.exe PID=     21734.
  
 Copyright (c) 1988,1990,1992,1993,1995,1998,2003,2009,2016,
            Gaussian, Inc.  All Rights Reserved.
  
 This is part of the Gaussian(R) 16 program.  It is based on
 the Gaussian(R) 09 system (copyright 2009, Gaussian, Inc.),
 the Gaussian(R) 03 system (copyright 2003, Gaussian, Inc.),
 the Gaussian(R) 98 system (copyright 1998, Gaussian, Inc.),
 the Gaussian(R) 94 system (copyright 1995, Gaussian, Inc.),
 the Gaussian 92(TM) system (copyright 1992, Gaussian, Inc.),
 the Gaussian 90(TM) system (copyright 1990, Gaussian, Inc.),
 the Gaussian 88(TM) system (copyright 1988, Gaussian, Inc.),
 the Gaussian 86(TM) system (copyright 1986, Carnegie Mellon
 University), and the Gaussian 82(TM) system (copyright 1983,
 Carnegie Mellon University). Gaussian is a federally registered
 trademark of Gaussian, Inc.
  
 This software contains proprietary and confidential information,
 including trade secrets, belonging to Gaussian, Inc.
  
 This software is provided under written license and may be
 used, copied, transmitted, or stored only in accord with that
 written license.
  
 The following legend is applicable only to US Government
 contracts under FAR:
  
                    RESTRICTED RIGHTS LEGEND
  
 Use, reproduction and disclosure by the US Government is
 subject to restrictions as set forth in subparagraphs (a)
 and (c) of the Commercial Computer Software - Restricted
 Rights clause in FAR 52.227-19.
  
 Gaussian, Inc.
 340 Quinnipiac St., Bldg. 40, Wallingford CT 06492
  
  
 ---------------------------------------------------------------
 Warning -- This program may not be used in any manner that
 competes with the business of Gaussian, Inc. or will provide
 assistance to any competitor of Gaussian, Inc.  The licensee
 of this program is prohibited from giving any competitor of
 Gaussian, Inc. access to this program.  By using this program,
 the user acknowledges that Gaussian, Inc. is engaged in the
 business of creating and licensing software in the field of
 computational chemistry and represents and warrants to the
 licensee that it is not a competitor of Gaussian, Inc. and that
 it will not use this program in any manner prohibited above.
 ---------------------------------------------------------------
  

 Cite this work as:
 Gaussian 16, Revision A.03,
 M. J. Frisch, G. W. Trucks, H. B. Schlegel, G. E. Scuseria, 
 M. A. Robb, J. R. Cheeseman, G. Scalmani, V. Barone, 
 G. A. Petersson, H. Nakatsuji, X. Li, M. Caricato, A. V. Marenich, 
 J. Bloino, B. G. Janesko, R. Gomperts, B. Mennucci, H. P. Hratchian, 
 J. V. Ortiz, A. F. Izmaylov, J. L. Sonnenberg, D. Williams-Young, 
 F. Ding, F. Lipparini, F. Egidi, J. Goings, B. Peng, A. Petrone, 
 T. Henderson, D. Ranasinghe, V. G. Zakrzewski, J. Gao, N. Rega, 
 G. Zheng, W. Liang, M. Hada, M. Ehara, K. Toyota, R. Fukuda, 
 J. Hasegawa, M. Ishida, T. Nakajima, Y. Honda, O. Kitao, H. Nakai, 
 T. Vreven, K. Throssell, J. A. Montgomery, Jr., J. E. Peralta, 
 F. Ogliaro, M. J. Bearpark, J. J. Heyd, E. N. Brothers, K. N. Kudin, 
 V. N. Staroverov, T. A. Keith, R. Kobayashi, J. Normand, 
 K. Raghavachari, A. P. Rendell, J. C. Burant, S. S. Iyengar, 
 J. Tomasi, M. Cossi, J. M. Millam, M. Klene, C. Adamo, R. Cammi, 
 J. W. Ochterski, R. L. Martin, K. Morokuma, O. Farkas, 
 J. B. Foresman, and D. J. Fox, Gaussian, Inc., Wallingford CT, 2016.
 
 ******************************************
 Gaussian 16:  ES64L-G16RevA.03 25-Dec-2016
                12-Oct-2023 
 ******************************************
 %nprocshared=4
 Will use up to    4 processors via shared memory.
 %mem=4GB
 ------------------
 # ub3lyp/6-31+g(d)
 ------------------
 1/38=1,172=1/1;
 2/12=2,17=6,18=5,40=1/2;
 3/5=1,6=6,7=11,11=2,25=1,30=1,74=-5,116=2/1,2,3;
 4//1;
 5/5=2,38=5/2;
 6/7=2,8=2,9=2,10=2,28=1/1;
 99/5=1,9=1/99;
 ------------------------
 tmpdir/M3_frag_ref_0.gjf
 ------------------------
 Symbolic Z-matrix:
 Charge =  0 Multiplicity = 1
 C                     2.76086  -0.64578  -0.05544 
 C                     1.56914  -1.37271  -0.06898 
 C                     0.35803  -0.6951   -0.06228 
 C                     0.33039   0.70664  -0.0169 
 C                     1.51457   1.42596   0.00432 
 C                     2.73397   0.74492  -0.01998 
 H                     3.71236  -1.16918  -0.07324 
 H                     1.58782  -2.45944  -0.09246 
 H                     1.49361   2.51222   0.04105 
 H                     3.66449   1.3048   -0.00921 
 H                    -0.64899  -1.14631  -0.03801 
 H                    -0.68507   1.12345   0.01035 
 
                          Input orientation:                          
 ---------------------------------------------------------------------
 Center     Atomic      Atomic             Coordinates (Angstroms)
 Number     Number       Type             X           Y           Z
 ---------------------------------------------------------------------
      1          6           0        2.760863   -0.645777   -0.055435
      2          6           0        1.569139   -1.372715   -0.068976
      3          6           0        0.358030   -0.695095   -0.062281
      4          6           0        0.330395    0.706637   -0.016895
      5          6           0        1.514569    1.425958    0.004316
      6          6           0        2.733973    0.744920   -0.019982
      7          1           0        3.712363   -1.169184   -0.073236
      8          1           0        1.587816   -2.459440   -0.092460
      9          1           0        1.493615    2.512221    0.041045
     10          1           0        3.664487    1.304805   -0.009211
     11          1           0       -0.648988   -1.146310   -0.038009
     12          1           0       -0.685075    1.123452    0.010351
 ---------------------------------------------------------------------
                    Distance matrix (angstroms):
                    1          2          3          4          5
     1  C    0.000000
     2  C    1.396005   0.000000
     3  C    2.403349   1.387803   0.000000
     4  C    2.781670   2.420930   1.402740   0.000000
     5  C    2.418451   2.800164   2.416792   1.385691   0.000000
     6  C    1.391409   2.417358   2.778586   2.403885   1.396907
     7  H    1.086104   2.152871   3.387687   3.867762   3.401628
     8  H    2.160274   1.087139   2.150859   3.407472   3.887293
     9  H    3.404142   3.887228   3.403984   2.148621   1.087087
    10  H    2.150219   3.400466   3.864592   3.387334   2.153371
    11  H    3.446436   2.229866   1.103752   2.095960   3.361447
    12  H    3.874144   3.364316   2.097727   1.098024   2.220355
                    6          7          8          9         10
     6  C    0.000000
     7  H    2.150320   0.000000
     8  H    3.403947   2.485725   0.000000
     9  H    2.159992   4.299843   4.974346   0.000000
    10  H    1.086021   2.475280   4.299887   2.484566   0.000000
    11  H    3.875758   4.361552   2.594334   4.240500   4.961336
    12  H    3.440072   4.959902   4.244257   2.583856   4.353385
                   11         12
    11  H    0.000000
    12  H    2.270564   0.000000
 Stoichiometry    C6H6
 Framework group  C1[X(C6H6)]
 Deg. of freedom    30
 Full point group                 C1      NOp   1
 Largest Abelian subgroup         C1      NOp   1
 Largest concise Abelian subgroup C1      NOp   1
                         Standard orientation:                         
 ---------------------------------------------------------------------
 Center     Atomic      Atomic             Coordinates (Angstroms)
 Number     Number       Type             X           Y           Z
 ---------------------------------------------------------------------
      1          6           0        1.289591   -0.527552    0.000397
      2          6           0        0.190136   -1.387795    0.003574
      3          6           0       -1.091302   -0.855144   -0.010490
      4          6           0       -1.281286    0.534647   -0.002534
      5          6           0       -0.188490    1.386653    0.002142
      6          6           0        1.101677    0.851109   -0.001281
      7          1           0        2.295373   -0.937457   -0.001329
      8          1           0        0.334635   -2.465274    0.009098
      9          1           0       -0.335267    2.463757    0.009866
     10          1           0        1.961038    1.515139   -0.003358
     11          1           0       -2.039419   -1.419221    0.023551
     12          1           0       -2.338316    0.831550    0.011331
 ---------------------------------------------------------------------
 Rotational constants (GHZ):           5.7161172           5.6995174           2.8539798
 Standard basis: 6-31+G(d) (6D, 7F)
 There are   126 symmetry adapted cartesian basis functions of A   symmetry.
 There are   126 symmetry adapted basis functions of A   symmetry.
   126 basis functions,   216 primitive gaussians,   126 cartesian basis functions
    21 alpha electrons       21 beta electrons
       nuclear repulsion energy       203.4933247890 Hartrees.
 NAtoms=   12 NActive=   12 NUniq=   12 SFac= 1.00D+00 NAtFMM=   60 NAOKFM=F Big=F
 Integral buffers will be    131072 words long.
 Raffenetti 2 integral format.
 Two-electron integral symmetry is turned on.
 One-electron integrals computed using PRISM.
 NBasis=   126 RedAO= T EigKep=  6.32D-06  NBF=   126
 NBsUse=   126 1.00D-06 EigRej= -1.00D+00 NBFU=   126
 ExpMin= 4.38D-02 ExpMax= 3.05D+03 ExpMxC= 4.57D+02 IAcc=3 IRadAn=         5 AccDes= 0.00D+00
 Harris functional with IExCor=  402 and IRadAn=       5 diagonalized for initial guess.
 HarFok:  IExCor=  402 AccDes= 0.00D+00 IRadAn=         5 IDoV= 1 UseB2=F ITyADJ=14
 ICtDFT=  3500011 ScaDFX=  1.000000  1.000000  1.000000  1.000000
 FoFCou: FMM=F IPFlag=           0 FMFlag=      100000 FMFlg1=           0
         NFxFlg=           0 DoJE=T BraDBF=F KetDBF=T FulRan=T
         wScrn=  0.000000 ICntrl=       500 IOpCl=  0 I1Cent=   200000004 NGrid=           0
         NMat0=    1 NMatS0=      1 NMatT0=    0 NMatD0=    1 NMtDS0=    0 NMtDT0=    0
 Petite list used in FoFCou.
 Initial guess <Sx>= 0.0000 <Sy>= 0.0000 <Sz>= 0.0000 <S**2>= 0.0000 S= 0.0000
 Keep R1 and R2 ints in memory in canonical form, NReq=67826110.
 Requested convergence on RMS density matrix=1.00D-08 within 128 cycles.
 Requested convergence on MAX density matrix=1.00D-06.
 Requested convergence on             energy=1.00D-06.
 No special actions if energy rises.
 SCF Done:  E(UB3LYP) =  -232.255188439     A.U. after   11 cycles
            NFock= 11  Conv=0.72D-08     -V/T= 2.0101
 <Sx>= 0.0000 <Sy>= 0.0000 <Sz>= 0.0000 <S**2>=-0.0000 S=-0.0000
 <L.S>= 0.000000000000E+00
 Annihilation of the first spin contaminant:
 S**2 before annihilation    -0.0000,   after    -0.0000

 **********************************************************************

            Population analysis using the SCF density.

 **********************************************************************

 Orbital symmetries:
 Alpha Orbitals:
       Occupied  (A) (A) (A) (A) (A) (A) (A) (A) (A) (A) (A) (A)
                 (A) (A) (A) (A) (A) (A) (A) (A) (A)
       Virtual   (A) (A) (A) (A) (A) (A) (A) (A) (A) (A) (A) (A)
                 (A) (A) (A) (A) (A) (A) (A) (A) (A) (A) (A) (A)
                 (A) (A) (A) (A) (A) (A) (A) (A) (A) (A) (A) (A)
                 (A) (A) (A) (A) (A) (A) (A) (A) (A) (A) (A) (A)
                 (A) (A) (A) (A) (A) (A) (A) (A) (A) (A) (A) (A)
                 (A) (A) (A) (A) (A) (A) (A) (A) (A) (A) (A) (A)
                 (A) (A) (A) (A) (A) (A) (A) (A) (A) (A) (A) (A)
                 (A) (A) (A) (A) (A) (A) (A) (A) (A) (A) (A) (A)
                 (A) (A) (A) (A) (A) (A) (A) (A) (A)
 Beta  Orbitals:
       Occupied  (A) (A) (A) (A) (A) (A) (A) (A) (A) (A) (A) (A)
                 (A) (A) (A) (A) (A) (A) (A) (A) (A)
       Virtual   (A) (A) (A) (A) (A) (A) (A) (A) (A) (A) (A) (A)
                 (A) (A) (A) (A) (A) (A) (A) (A) (A) (A) (A) (A)
                 (A) (A) (A) (A) (A) (A) (A) (A) (A) (A) (A) (A)
                 (A) (A) (A) (A) (A) (A) (A) (A) (A) (A) (A) (A)
                 (A) (A) (A) (A) (A) (A) (A) (A) (A) (A) (A) (A)
                 (A) (A) (A) (A) (A) (A) (A) (A) (A) (A) (A) (A)
                 (A) (A) (A) (A) (A) (A) (A) (A) (A) (A) (A) (A)
                 (A) (A) (A) (A) (A) (A) (A) (A) (A) (A) (A) (A)
                 (A) (A) (A) (A) (A) (A) (A) (A) (A)
 The electronic state is 1-A.
 Alpha  occ. eigenvalues --  -10.19832 -10.19803 -10.19768 -10.19722 -10.19717
 Alpha  occ. eigenvalues --  -10.19636  -0.85944  -0.75147  -0.75074  -0.61109
 Alpha  occ. eigenvalues --   -0.60355  -0.52816  -0.46475  -0.45169  -0.42837
 Alpha  occ. eigenvalues --   -0.42310  -0.37116  -0.35216  -0.34463  -0.25887
 Alpha  occ. eigenvalues --   -0.25698
 Alpha virt. eigenvalues --   -0.01374  -0.01334   0.00827   0.02511   0.02685
 Alpha virt. eigenvalues --    0.04515   0.04691   0.06641   0.07823   0.07868
 Alpha virt. eigenvalues --    0.09183   0.09238   0.09950   0.12826   0.14261
 Alpha virt. eigenvalues --    0.14309   0.14434   0.14449   0.15499   0.15563
 Alpha virt. eigenvalues --    0.19373   0.19489   0.19899   0.20627   0.21163
 Alpha virt. eigenvalues --    0.21200   0.23507   0.24076   0.24291   0.26615
 Alpha virt. eigenvalues --    0.27651   0.28417   0.32177   0.34434   0.35009
 Alpha virt. eigenvalues --    0.35345   0.35827   0.56845   0.57429   0.60721
 Alpha virt. eigenvalues --    0.62436   0.65857   0.71646   0.71668   0.72172
 Alpha virt. eigenvalues --    0.72337   0.74631   0.74722   0.76934   0.77273
 Alpha virt. eigenvalues --    0.80375   0.83076   0.89466   0.92525   0.92973
 Alpha virt. eigenvalues --    0.95364   0.96493   0.97781   1.02812   1.07367
 Alpha virt. eigenvalues --    1.07496   1.12012   1.14876   1.17134   1.18174
 Alpha virt. eigenvalues --    1.25075   1.31400   1.38499   1.43356   1.44244
 Alpha virt. eigenvalues --    1.48010   1.48198   1.50435   1.51137   1.74937
 Alpha virt. eigenvalues --    1.82111   1.87859   1.89954   1.97899   1.98542
 Alpha virt. eigenvalues --    2.10476   2.11981   2.15104   2.15764   2.17168
 Alpha virt. eigenvalues --    2.17754   2.30527   2.30600   2.32789   2.56366
 Alpha virt. eigenvalues --    2.57951   2.65200   2.68447   2.72040   2.73839
 Alpha virt. eigenvalues --    2.74481   2.82449   3.02678   3.40005   4.22647
 Alpha virt. eigenvalues --    4.23577   4.24034   4.37444   4.37800   4.68013
  Beta  occ. eigenvalues --  -10.19832 -10.19803 -10.19768 -10.19722 -10.19717
  Beta  occ. eigenvalues --  -10.19636  -0.85944  -0.75147  -0.75074  -0.61109
  Beta  occ. eigenvalues --   -0.60355  -0.52816  -0.46475  -0.45169  -0.42837
  Beta  occ. eigenvalues --   -0.42310  -0.37116  -0.35216  -0.34463  -0.25887
  Beta  occ. eigenvalues --   -0.25698
  Beta virt. eigenvalues --   -0.01374  -0.01334   0.00827   0.02511   0.02685
  Beta virt. eigenvalues --    0.04515   0.04691   0.06641   0.07823   0.07868
  Beta virt. eigenvalues --    0.09183   0.09238   0.09950   0.12826   0.14261
  Beta virt. eigenvalues --    0.14309   0.14434   0.14449   0.15499   0.15563
  Beta virt. eigenvalues --    0.19373   0.19489   0.19899   0.20627   0.21163
  Beta virt. eigenvalues --    0.21200   0.23507   0.24076   0.24291   0.26615
  Beta virt. eigenvalues --    0.27651   0.28417   0.32177   0.34434   0.35009
  Beta virt. eigenvalues --    0.35345   0.35827   0.56845   0.57429   0.60721
  Beta virt. eigenvalues --    0.62436   0.65857   0.71646   0.71668   0.72172
  Beta virt. eigenvalues --    0.72337   0.74631   0.74722   0.76934   0.77273
  Beta virt. eigenvalues --    0.80375   0.83076   0.89466   0.92525   0.92973
  Beta virt. eigenvalues --    0.95364   0.96493   0.97781   1.02812   1.07367
  Beta virt. eigenvalues --    1.07496   1.12012   1.14876   1.17134   1.18174
  Beta virt. eigenvalues --    1.25075   1.31400   1.38499   1.43356   1.44244
  Beta virt. eigenvalues --    1.48010   1.48198   1.50435   1.51137   1.74937
  Beta virt. eigenvalues --    1.82111   1.87859   1.89954   1.97899   1.98542
  Beta virt. eigenvalues --    2.10476   2.11981   2.15104   2.15764   2.17168
  Beta virt. eigenvalues --    2.17754   2.30527   2.30600   2.32789   2.56366
  Beta virt. eigenvalues --    2.57951   2.65200   2.68447   2.72040   2.73839
  Beta virt. eigenvalues --    2.74481   2.82449   3.02678   3.40005   4.22647
  Beta virt. eigenvalues --    4.23577   4.24034   4.37444   4.37800   4.68013
          Condensed to atoms (all electrons):
               1          2          3          4          5          6
     1  C    4.952587   0.542861  -0.067418  -0.016253  -0.076563   0.552018
     2  C    0.542861   4.997727   0.575334  -0.098217  -0.028966  -0.075126
     3  C   -0.067418   0.575334   4.981177   0.490071  -0.101765  -0.017206
     4  C   -0.016253  -0.098217   0.490071   4.980623   0.575437  -0.066174
     5  C   -0.076563  -0.028966  -0.101765   0.575437   4.999603   0.541953
     6  C    0.552018  -0.075126  -0.017206  -0.066174   0.541953   4.953239
     7  H    0.280055  -0.001205   0.007751  -0.007262   0.009225   0.003127
     8  H   -0.000412   0.274000   0.002433   0.011602  -0.007183   0.009428
     9  H    0.009172  -0.006965   0.011594   0.003011   0.272666  -0.000009
    10  H    0.003221   0.009103  -0.007049   0.007567  -0.000469   0.279318
    11  H    0.003992   0.004532   0.262802   0.009575   0.013950  -0.005236
    12  H   -0.005313   0.013443   0.008997   0.263835   0.004133   0.004477
               7          8          9         10         11         12
     1  C    0.280055  -0.000412   0.009172   0.003221   0.003992  -0.005313
     2  C   -0.001205   0.274000  -0.006965   0.009103   0.004532   0.013443
     3  C    0.007751   0.002433   0.011594  -0.007049   0.262802   0.008997
     4  C   -0.007262   0.011602   0.003011   0.007567   0.009575   0.263835
     5  C    0.009225  -0.007183   0.272666  -0.000469   0.013950   0.004133
     6  C    0.003127   0.009428  -0.000009   0.279318  -0.005236   0.004477
     7  H    0.541103  -0.005316  -0.000158  -0.005362  -0.000136   0.000015
     8  H   -0.005316   0.541046   0.000017  -0.000159  -0.004214  -0.000189
     9  H   -0.000158   0.000017   0.541991  -0.005351  -0.000193  -0.004334
    10  H   -0.005362  -0.000159  -0.005351   0.541228   0.000015  -0.000139
    11  H   -0.000136  -0.004214  -0.000193   0.000015   0.546542  -0.007967
    12  H    0.000015  -0.000189  -0.004334  -0.000139  -0.007967   0.546298
          Atomic-Atomic Spin Densities.
               1          2          3          4          5          6
     1  C   -0.000000  -0.000000  -0.000000  -0.000000   0.000000  -0.000000
     2  C   -0.000000   0.000000   0.000000   0.000000  -0.000000   0.000000
     3  C   -0.000000   0.000000  -0.000000  -0.000000  -0.000000   0.000000
     4  C   -0.000000   0.000000  -0.000000   0.000000  -0.000000   0.000000
     5  C    0.000000  -0.000000  -0.000000  -0.000000   0.000000  -0.000000
     6  C   -0.000000   0.000000   0.000000   0.000000  -0.000000   0.000000
     7  H   -0.000000   0.000000   0.000000   0.000000  -0.000000  -0.000000
     8  H    0.000000  -0.000000   0.000000  -0.000000   0.000000  -0.000000
     9  H   -0.000000   0.000000  -0.000000   0.000000  -0.000000  -0.000000
    10  H   -0.000000   0.000000  -0.000000   0.000000  -0.000000   0.000000
    11  H    0.000000   0.000000  -0.000000  -0.000000  -0.000000   0.000000
    12  H    0.000000  -0.000000  -0.000000  -0.000000   0.000000  -0.000000
               7          8          9         10         11         12
     1  C   -0.000000   0.000000  -0.000000  -0.000000   0.000000   0.000000
     2  C    0.000000  -0.000000   0.000000   0.000000   0.000000  -0.000000
     3  C    0.000000   0.000000  -0.000000  -0.000000  -0.000000  -0.000000
     4  C    0.000000  -0.000000   0.000000   0.000000  -0.000000  -0.000000
     5  C   -0.000000   0.000000  -0.000000  -0.000000  -0.000000   0.000000
     6  C   -0.000000  -0.000000  -0.000000   0.000000   0.000000  -0.000000
     7  H    0.000000  -0.000000   0.000000  -0.000000  -0.000000  -0.000000
     8  H   -0.000000   0.000000  -0.000000   0.000000  -0.000000   0.000000
     9  H    0.000000  -0.000000   0.000000  -0.000000  -0.000000  -0.000000
    10  H   -0.000000   0.000000  -0.000000   0.000000   0.000000   0.000000
    11  H   -0.000000  -0.000000  -0.000000   0.000000  -0.000000   0.000000
    12  H   -0.000000   0.000000  -0.000000   0.000000   0.000000   0.000000
 Mulliken charges and spin densities:
               1          2
     1  C   -0.177947  -0.000000
     2  C   -0.206519   0.000000
     3  C   -0.146721  -0.000000
     4  C   -0.153815   0.000000
     5  C   -0.202020  -0.000000
     6  C   -0.179807   0.000000
     7  H    0.178164  -0.000000
     8  H    0.178949   0.000000
     9  H    0.178557  -0.000000
    10  H    0.178076   0.000000
    11  H    0.176339  -0.000000
    12  H    0.176744   0.000000
 Sum of Mulliken charges =  -0.00000   0.00000
 Mulliken charges and spin densities with hydrogens summed into heavy atoms:
               1          2
     1  C    0.000216  -0.000000
     2  C   -0.027571   0.000000
     3  C    0.029618  -0.000000
     4  C    0.022929   0.000000
     5  C   -0.023462  -0.000000
     6  C   -0.001731   0.000000
 Electronic spatial extent (au):  <R**2>=            459.7245
 Charge=             -0.0000 electrons
 Dipole moment (field-independent basis, Debye):
    X=             -0.0082    Y=              0.0042    Z=              0.0391  Tot=              0.0402
 Quadrupole moment (field-independent basis, Debye-Ang):
   XX=            -31.9466   YY=            -32.5999   ZZ=            -40.3692
   XY=              0.0614   XZ=             -0.0956   YZ=             -0.0282
 Traceless Quadrupole moment (field-independent basis, Debye-Ang):
   XX=              3.0253   YY=              2.3720   ZZ=             -5.3973
   XY=              0.0614   XZ=             -0.0956   YZ=             -0.0282
 Octapole moment (field-independent basis, Debye-Ang**2):
  XXX=             -0.9538  YYY=              0.4280  ZZZ=              0.0710  XYY=              0.9755
  XXY=             -0.3608  XXZ=              0.1848  XZZ=              0.0756  YZZ=              0.0238
  YYZ=              0.1678  XYZ=              0.0408
 Hexadecapole moment (field-independent basis, Debye-Ang**3):
 XXXX=           -276.9360 YYYY=           -280.2810 ZZZZ=            -51.9833 XXXY=              1.2146
 XXXZ=             -0.5872 YYYX=             -0.7750 YYYZ=             -0.0992 ZZZX=             -0.1528
 ZZZY=             -0.0476 XXYY=            -95.0857 XXZZ=            -66.2828 YYZZ=            -65.9069
 XXYZ=             -0.1391 YYXZ=             -0.2017 ZZXY=             -0.0319
 N-N= 2.034933247890D+02 E-N=-9.439381524286D+02  KE= 2.299398427169D+02
                          Isotropic Fermi Contact Couplings
        Atom                 a.u.       MegaHertz       Gauss      10(-4) cm-1
     1  C(13)              0.00000       0.00000       0.00000       0.00000
     2  C(13)              0.00000       0.00000       0.00000       0.00000
     3  C(13)              0.00000       0.00000       0.00000       0.00000
     4  C(13)              0.00000       0.00000       0.00000       0.00000
     5  C(13)              0.00000       0.00000       0.00000       0.00000
     6  C(13)              0.00000       0.00000       0.00000       0.00000
     7  H(1)              -0.00000      -0.00000      -0.00000      -0.00000
     8  H(1)               0.00000       0.00000       0.00000       0.00000
     9  H(1)              -0.00000      -0.00000      -0.00000      -0.00000
    10  H(1)               0.00000       0.00000       0.00000       0.00000
    11  H(1)              -0.00000      -0.00000      -0.00000      -0.00000
    12  H(1)               0.00000       0.00000       0.00000       0.00000
 --------------------------------------------------------
       Center         ----  Spin Dipole Couplings  ----
                      3XX-RR        3YY-RR        3ZZ-RR
 --------------------------------------------------------
     1   Atom        0.000000     -0.000000      0.000000
     2   Atom        0.000000      0.000000     -0.000000
     3   Atom       -0.000000     -0.000000      0.000000
     4   Atom        0.000000      0.000000     -0.000000
     5   Atom       -0.000000      0.000000      0.000000
     6   Atom        0.000000     -0.000000     -0.000000
     7   Atom        0.000000     -0.000000     -0.000000
     8   Atom        0.000000     -0.000000      0.000000
     9   Atom       -0.000000      0.000000     -0.000000
    10   Atom       -0.000000      0.000000      0.000000
    11   Atom        0.000000     -0.000000     -0.000000
    12   Atom       -0.000000      0.000000      0.000000
 --------------------------------------------------------
                        XY            XZ            YZ
 --------------------------------------------------------
     1   Atom       -0.000000     -0.000000     -0.000000
     2   Atom        0.000000      0.000000      0.000000
     3   Atom        0.000000      0.000000      0.000000
     4   Atom        0.000000      0.000000      0.000000
     5   Atom       -0.000000     -0.000000     -0.000000
     6   Atom       -0.000000     -0.000000      0.000000
     7   Atom       -0.000000     -0.000000     -0.000000
     8   Atom        0.000000      0.000000     -0.000000
     9   Atom       -0.000000     -0.000000      0.000000
    10   Atom       -0.000000      0.000000      0.000000
    11   Atom        0.000000     -0.000000     -0.000000
    12   Atom        0.000000      0.000000      0.000000
 --------------------------------------------------------


 ---------------------------------------------------------------------------------
              Anisotropic Spin Dipole Couplings in Principal Axis System
 ---------------------------------------------------------------------------------

       Atom             a.u.   MegaHertz   Gauss  10(-4) cm-1        Axes

              Baa    -0.0000    -0.000    -0.000    -0.000  0.3885  0.9212  0.0203
     1 C(13)  Bbb     0.0000     0.000     0.000     0.000  0.9210 -0.3889  0.0237
              Bcc     0.0000     0.000     0.000     0.000 -0.0297 -0.0095  0.9995
 
              Baa    -0.0000    -0.000    -0.000    -0.000 -0.0031 -0.0139  0.9999
     2 C(13)  Bbb     0.0000     0.000     0.000     0.000 -0.5681  0.8229  0.0097
              Bcc     0.0000     0.000     0.000     0.000  0.8230  0.5680  0.0105
 
              Baa    -0.0000    -0.000    -0.000    -0.000 -0.6108  0.7914  0.0220
     3 C(13)  Bbb     0.0000     0.000     0.000     0.000 -0.5423 -0.4385  0.7167
              Bcc     0.0000     0.000     0.000     0.000  0.5769  0.4258  0.6970
 
              Baa    -0.0000    -0.000    -0.000    -0.000 -0.0022 -0.0160  0.9999
     4 C(13)  Bbb     0.0000     0.000     0.000     0.000  0.8687 -0.4952 -0.0060
              Bcc     0.0000     0.000     0.000     0.000  0.4953  0.8686  0.0149
 
              Baa    -0.0000    -0.000    -0.000    -0.000  0.9710  0.2347  0.0467
     5 C(13)  Bbb     0.0000     0.000     0.000     0.000 -0.2358  0.9716  0.0204
              Bcc     0.0000     0.000     0.000     0.000 -0.0406 -0.0308  0.9987
 
              Baa    -0.0000    -0.000    -0.000    -0.000  0.0103 -0.0194  0.9998
     6 C(13)  Bbb    -0.0000    -0.000    -0.000    -0.000  0.3794  0.9251  0.0140
              Bcc     0.0000     0.000     0.000     0.000  0.9252 -0.3792 -0.0169
 
              Baa    -0.0000    -0.000    -0.000    -0.000  0.0151  0.0190  0.9997
     7 H(1)   Bbb    -0.0000    -0.000    -0.000    -0.000  0.3118  0.9499 -0.0228
              Bcc     0.0000     0.000     0.000     0.000  0.9500 -0.3120 -0.0084
 
              Baa    -0.0000    -0.000    -0.000    -0.000 -0.1666  0.9860  0.0124
     8 H(1)   Bbb     0.0000     0.000     0.000     0.000 -0.0081 -0.0139  0.9999
              Bcc     0.0000     0.000     0.000     0.000  0.9860  0.1664  0.0103
 
              Baa    -0.0000    -0.000    -0.000    -0.000  0.9849  0.1250  0.1199
     9 H(1)   Bbb    -0.0000    -0.000    -0.000    -0.000 -0.1174 -0.0275  0.9927
              Bcc     0.0000     0.000     0.000     0.000 -0.1274  0.9918  0.0124
 
              Baa    -0.0000    -0.000    -0.000    -0.000  0.9227  0.3855 -0.0115
    10 H(1)   Bbb     0.0000     0.000     0.000     0.000  0.0101  0.0057  0.9999
              Bcc     0.0000     0.000     0.000     0.000 -0.3855  0.9227 -0.0013
 
              Baa    -0.0000    -0.000    -0.000    -0.000 -0.3214  0.9462  0.0381
    11 H(1)   Bbb    -0.0000    -0.000    -0.000    -0.000  0.0589 -0.0202  0.9981
              Bcc     0.0000     0.000     0.000     0.000  0.9451  0.3230 -0.0492
 
              Baa    -0.0000    -0.000    -0.000    -0.000  0.9678 -0.2514 -0.0082
    12 H(1)   Bbb     0.0000     0.000     0.000     0.000  0.0020 -0.0250  0.9997
              Bcc     0.0000     0.000     0.000     0.000  0.2515  0.9676  0.0237
 

 ---------------------------------------------------------------------------------

 1\1\GINC-NODE31\SP\UB3LYP\6-31+G(d)\C6H6\YANZ\12-Oct-2023\0\\# ub3lyp/
 6-31+g(d)\\tmpdir/M3_frag_ref_0.gjf\\0,1\C,0,2.76086323,-0.64577722,-0
 .05543502\C,0,1.5691386,-1.37271489,-0.06897614\C,0,0.35803021,-0.6950
 9548,-0.06228099\C,0,0.33039499,0.70663737,-0.01689504\C,0,1.51456879,
 1.42595753,0.00431597\C,0,2.73397309,0.74492017,-0.01998226\H,0,3.7123
 6256,-1.16918432,-0.07323601\H,0,1.58781592,-2.45944017,-0.09245997\H,
 0,1.49361496,2.51222136,0.0410451\H,0,3.66448683,1.30480451,-0.0092108
 6\H,0,-0.64898759,-1.14630964,-0.03800929\H,0,-0.68507474,1.12345238,0
 .01035115\\Version=ES64L-G16RevA.03\State=1-A\HF=-232.2551884\S2=0.\S2
 -1=0.\S2A=0.\RMSD=7.239e-09\Dipole=-0.0029929,0.0016127,0.0154356\Quad
 rupole=2.2528452,1.7561209,-4.0089661,-0.0091835,-0.0872533,0.1411814\
 PG=C01 [X(C6H6)]\\@


 WE THE UNWILLING
 LED BY THE UNQUALIFIED
 HAVE BEEN DOING THE UNBELIEVABLE SO LONG WITH SO LITTLE
 THAT WE NOW ATTEMPT THE IMPOSSIBLE WITH NOTHING.

                                    -- ANONYMOUS
 Job cpu time:       0 days  0 hours  1 minutes 23.0 seconds.
 Elapsed time:       0 days  0 hours  0 minutes 21.7 seconds.
 File lengths (MBytes):  RWF=     16 Int=      0 D2E=      0 Chk=      2 Scr=      1
 Normal termination of Gaussian 16 at Thu Oct 12 15:27:22 2023.
