 Entering Gaussian System, Link 0=g16
 Initial command:
 /share/apps/gaussian/g16/l1.exe "/tmp/58287.mgr/Gau-20894.inp" -scrdir="/tmp/58287.mgr/"
 Entering Link 1 = /share/apps/gaussian/g16/l1.exe PID=     20895.
  
 Copyright (c) 1988,1990,1992,1993,1995,1998,2003,2009,2016,
            Gaussian, Inc.  All Rights Reserved.
  
 This is part of the Gaussian(R) 16 program.  It is based on
 the Gaussian(R) 09 system (copyright 2009, Gaussian, Inc.),
 the Gaussian(R) 03 system (copyright 2003, Gaussian, Inc.),
 the Gaussian(R) 98 system (copyright 1998, Gaussian, Inc.),
 the Gaussian(R) 94 system (copyright 1995, Gaussian, Inc.),
 the Gaussian 92(TM) system (copyright 1992, Gaussian, Inc.),
 the Gaussian 90(TM) system (copyright 1990, Gaussian, Inc.),
 the Gaussian 88(TM) system (copyright 1988, Gaussian, Inc.),
 the Gaussian 86(TM) system (copyright 1986, Carnegie Mellon
 University), and the Gaussian 82(TM) system (copyright 1983,
 Carnegie Mellon University). Gaussian is a federally registered
 trademark of Gaussian, Inc.
  
 This software contains proprietary and confidential information,
 including trade secrets, belonging to Gaussian, Inc.
  
 This software is provided under written license and may be
 used, copied, transmitted, or stored only in accord with that
 written license.
  
 The following legend is applicable only to US Government
 contracts under FAR:
  
                    RESTRICTED RIGHTS LEGEND
  
 Use, reproduction and disclosure by the US Government is
 subject to restrictions as set forth in subparagraphs (a)
 and (c) of the Commercial Computer Software - Restricted
 Rights clause in FAR 52.227-19.
  
 Gaussian, Inc.
 340 Quinnipiac St., Bldg. 40, Wallingford CT 06492
  
  
 ---------------------------------------------------------------
 Warning -- This program may not be used in any manner that
 competes with the business of Gaussian, Inc. or will provide
 assistance to any competitor of Gaussian, Inc.  The licensee
 of this program is prohibited from giving any competitor of
 Gaussian, Inc. access to this program.  By using this program,
 the user acknowledges that Gaussian, Inc. is engaged in the
 business of creating and licensing software in the field of
 computational chemistry and represents and warrants to the
 licensee that it is not a competitor of Gaussian, Inc. and that
 it will not use this program in any manner prohibited above.
 ---------------------------------------------------------------
  

 Cite this work as:
 Gaussian 16, Revision A.03,
 M. J. Frisch, G. W. Trucks, H. B. Schlegel, G. E. Scuseria, 
 M. A. Robb, J. R. Cheeseman, G. Scalmani, V. Barone, 
 G. A. Petersson, H. Nakatsuji, X. Li, M. Caricato, A. V. Marenich, 
 J. Bloino, B. G. Janesko, R. Gomperts, B. Mennucci, H. P. Hratchian, 
 J. V. Ortiz, A. F. Izmaylov, J. L. Sonnenberg, D. Williams-Young, 
 F. Ding, F. Lipparini, F. Egidi, J. Goings, B. Peng, A. Petrone, 
 T. Henderson, D. Ranasinghe, V. G. Zakrzewski, J. Gao, N. Rega, 
 G. Zheng, W. Liang, M. Hada, M. Ehara, K. Toyota, R. Fukuda, 
 J. Hasegawa, M. Ishida, T. Nakajima, Y. Honda, O. Kitao, H. Nakai, 
 T. Vreven, K. Throssell, J. A. Montgomery, Jr., J. E. Peralta, 
 F. Ogliaro, M. J. Bearpark, J. J. Heyd, E. N. Brothers, K. N. Kudin, 
 V. N. Staroverov, T. A. Keith, R. Kobayashi, J. Normand, 
 K. Raghavachari, A. P. Rendell, J. C. Burant, S. S. Iyengar, 
 J. Tomasi, M. Cossi, J. M. Millam, M. Klene, C. Adamo, R. Cammi, 
 J. W. Ochterski, R. L. Martin, K. Morokuma, O. Farkas, 
 J. B. Foresman, and D. J. Fox, Gaussian, Inc., Wallingford CT, 2016.
 
 ******************************************
 Gaussian 16:  ES64L-G16RevA.03 25-Dec-2016
                12-Oct-2023 
 ******************************************
 %nprocshared=4
 Will use up to    4 processors via shared memory.
 %mem=4GB
 ------------------
 # ub3lyp/6-31+g(d)
 ------------------
 1/38=1,172=1/1;
 2/12=2,17=6,18=5,40=1/2;
 3/5=1,6=6,7=11,11=2,25=1,30=1,74=-5,116=2/1,2,3;
 4//1;
 5/5=2,38=5/2;
 6/7=2,8=2,9=2,10=2,28=1/1;
 99/5=1,9=1/99;
 --------------------
 tmpdir/M3_ref_15.gjf
 --------------------
 Symbolic Z-matrix:
 Charge =  0 Multiplicity = 1
 C                     0.33039   0.70664  -0.0169 
 C                    -1.07241   1.28244   0.02074 
 H                    -1.08735   2.3742    0.0001 
 C                     0.35803  -0.6951   -0.06228 
 C                     1.51457   1.42596   0.00432 
 C                     1.56914  -1.37271  -0.06898 
 C                     2.73397   0.74492  -0.01998 
 H                     1.49361   2.51222   0.04105 
 C                     2.76086  -0.64578  -0.05544 
 H                     1.58782  -2.45944  -0.09246 
 H                     3.66449   1.3048   -0.00921 
 H                     3.71236  -1.16918  -0.07324 
 H                    -1.60206   0.84923   0.89071 
 H                    -1.65168   0.8275   -0.80422 
 H                    -0.64899  -1.14631  -0.03801 
 
                          Input orientation:                          
 ---------------------------------------------------------------------
 Center     Atomic      Atomic             Coordinates (Angstroms)
 Number     Number       Type             X           Y           Z
 ---------------------------------------------------------------------
      1          6           0        0.330395    0.706637   -0.016895
      2          6           0       -1.072408    1.282439    0.020744
      3          1           0       -1.087345    2.374200    0.000102
      4          6           0        0.358030   -0.695095   -0.062281
      5          6           0        1.514569    1.425958    0.004316
      6          6           0        1.569139   -1.372715   -0.068976
      7          6           0        2.733973    0.744920   -0.019982
      8          1           0        1.493615    2.512221    0.041045
      9          6           0        2.760863   -0.645777   -0.055435
     10          1           0        1.587816   -2.459440   -0.092460
     11          1           0        3.664487    1.304805   -0.009211
     12          1           0        3.712363   -1.169184   -0.073236
     13          1           0       -1.602059    0.849227    0.890705
     14          1           0       -1.651680    0.827496   -0.804224
     15          1           0       -0.648988   -1.146310   -0.038009
 ---------------------------------------------------------------------
                    Distance matrix (angstroms):
                    1          2          3          4          5
     1  C    0.000000
     2  C    1.516846   0.000000
     3  H    2.188845   1.092058   0.000000
     4  C    1.402740   2.442067   3.393167   0.000000
     5  C    1.385691   2.591007   2.769321   2.416792   0.000000
     6  C    2.420930   3.746420   4.593588   1.387803   2.800164
     7  C    2.403885   3.844363   4.154207   2.778586   1.396907
     8  H    2.148621   2.845567   2.584973   3.403984   1.087087
     9  C    2.781670   4.291596   4.892040   2.403349   2.418451
    10  H    3.407472   4.592523   5.525318   2.150859   3.887293
    11  H    3.387334   4.737043   4.870688   3.864592   2.153371
    12  H    3.867762   5.377111   5.966419   3.387687   3.401628
    13  H    2.139731   1.106814   1.839470   2.671155   3.291151
    14  H    2.136145   1.105939   1.832405   2.628251   3.322202
    15  H    2.095960   2.466082   3.547901   1.103752   3.361447
                    6          7          8          9         10
     6  C    0.000000
     7  C    2.417358   0.000000
     8  H    3.887228   2.159992   0.000000
     9  C    1.396005   1.391409   3.404142   0.000000
    10  H    1.087139   3.403947   4.974346   2.160274   0.000000
    11  H    3.400466   1.086021   2.484566   2.150219   4.299887
    12  H    2.152871   2.150320   4.299843   1.086104   2.485725
    13  H    3.989300   4.431863   3.615339   4.708005   4.699915
    14  H    3.969281   4.455986   3.666833   4.711875   4.669571
    15  H    2.229866   3.875758   4.240500   3.446436   2.594334
                   11         12         13         14         15
    11  H    0.000000
    12  H    2.475280   0.000000
    13  H    5.362267   5.765956   0.000000
    14  H    5.396434   5.770098   1.695795   0.000000
    15  H    4.961336   4.361552   2.398546   2.342731   0.000000
 Stoichiometry    C7H8
 Framework group  C1[X(C7H8)]
 Deg. of freedom    39
 Full point group                 C1      NOp   1
 Largest Abelian subgroup         C1      NOp   1
 Largest concise Abelian subgroup C1      NOp   1
                         Standard orientation:                         
 ---------------------------------------------------------------------
 Center     Atomic      Atomic             Coordinates (Angstroms)
 Number     Number       Type             X           Y           Z
 ---------------------------------------------------------------------
      1          6           0       -0.889877    0.106249   -0.008499
      2          6           0       -2.405127    0.038146    0.005660
      3          1           0       -2.877977    1.021209   -0.045239
      4          6           0       -0.273919   -1.154001   -0.014963
      5          6           0       -0.119137    1.257787   -0.000817
      6          6           0        1.109838   -1.258265    0.003593
      7          6           0        1.273872    1.153519    0.000282
      8          1           0       -0.596077    2.234641    0.005751
      9          6           0        1.884345   -0.096814    0.003439
     10          1           0        1.584688   -2.236193    0.010266
     11          1           0        1.881864    2.053401    0.000573
     12          1           0        2.967919   -0.170890    0.005233
     13          1           0       -2.717458   -0.557917    0.884406
     14          1           0       -2.725304   -0.637187   -0.809517
     15          1           0       -0.997622   -1.986792    0.016360
 ---------------------------------------------------------------------
 Rotational constants (GHZ):           5.5082987           2.5550326           1.7631423
 Standard basis: 6-31+G(d) (6D, 7F)
 There are   149 symmetry adapted cartesian basis functions of A   symmetry.
 There are   149 symmetry adapted basis functions of A   symmetry.
   149 basis functions,   256 primitive gaussians,   149 cartesian basis functions
    25 alpha electrons       25 beta electrons
       nuclear repulsion energy       269.5519629024 Hartrees.
 NAtoms=   15 NActive=   15 NUniq=   15 SFac= 1.00D+00 NAtFMM=   60 NAOKFM=F Big=F
 Integral buffers will be    131072 words long.
 Raffenetti 2 integral format.
 Two-electron integral symmetry is turned on.
 One-electron integrals computed using PRISM.
 NBasis=   149 RedAO= T EigKep=  5.01D-06  NBF=   149
 NBsUse=   149 1.00D-06 EigRej= -1.00D+00 NBFU=   149
 ExpMin= 4.38D-02 ExpMax= 3.05D+03 ExpMxC= 4.57D+02 IAcc=3 IRadAn=         5 AccDes= 0.00D+00
 Harris functional with IExCor=  402 and IRadAn=       5 diagonalized for initial guess.
 HarFok:  IExCor=  402 AccDes= 0.00D+00 IRadAn=         5 IDoV= 1 UseB2=F ITyADJ=14
 ICtDFT=  3500011 ScaDFX=  1.000000  1.000000  1.000000  1.000000
 FoFCou: FMM=F IPFlag=           0 FMFlag=      100000 FMFlg1=           0
         NFxFlg=           0 DoJE=T BraDBF=F KetDBF=T FulRan=T
         wScrn=  0.000000 ICntrl=       500 IOpCl=  0 I1Cent=   200000004 NGrid=           0
         NMat0=    1 NMatS0=      1 NMatT0=    0 NMatD0=    1 NMtDS0=    0 NMtDT0=    0
 Petite list used in FoFCou.
 Initial guess <Sx>= 0.0000 <Sy>= 0.0000 <Sz>= 0.0000 <S**2>=-0.0000 S=-0.0000
 Keep R1 and R2 ints in memory in canonical form, NReq=128793723.
 Requested convergence on RMS density matrix=1.00D-08 within 128 cycles.
 Requested convergence on MAX density matrix=1.00D-06.
 Requested convergence on             energy=1.00D-06.
 No special actions if energy rises.
 SCF Done:  E(UB3LYP) =  -271.569671724     A.U. after   12 cycles
            NFock= 12  Conv=0.65D-08     -V/T= 2.0100
 <Sx>= 0.0000 <Sy>= 0.0000 <Sz>= 0.0000 <S**2>=-0.0000 S=-0.0000
 <L.S>= 0.000000000000E+00
 Annihilation of the first spin contaminant:
 S**2 before annihilation    -0.0000,   after     0.0000

 **********************************************************************

            Population analysis using the SCF density.

 **********************************************************************

 Orbital symmetries:
 Alpha Orbitals:
       Occupied  (A) (A) (A) (A) (A) (A) (A) (A) (A) (A) (A) (A)
                 (A) (A) (A) (A) (A) (A) (A) (A) (A) (A) (A) (A)
                 (A)
       Virtual   (A) (A) (A) (A) (A) (A) (A) (A) (A) (A) (A) (A)
                 (A) (A) (A) (A) (A) (A) (A) (A) (A) (A) (A) (A)
                 (A) (A) (A) (A) (A) (A) (A) (A) (A) (A) (A) (A)
                 (A) (A) (A) (A) (A) (A) (A) (A) (A) (A) (A) (A)
                 (A) (A) (A) (A) (A) (A) (A) (A) (A) (A) (A) (A)
                 (A) (A) (A) (A) (A) (A) (A) (A) (A) (A) (A) (A)
                 (A) (A) (A) (A) (A) (A) (A) (A) (A) (A) (A) (A)
                 (A) (A) (A) (A) (A) (A) (A) (A) (A) (A) (A) (A)
                 (A) (A) (A) (A) (A) (A) (A) (A) (A) (A) (A) (A)
                 (A) (A) (A) (A) (A) (A) (A) (A) (A) (A) (A) (A)
                 (A) (A) (A) (A)
 Beta  Orbitals:
       Occupied  (A) (A) (A) (A) (A) (A) (A) (A) (A) (A) (A) (A)
                 (A) (A) (A) (A) (A) (A) (A) (A) (A) (A) (A) (A)
                 (A)
       Virtual   (A) (A) (A) (A) (A) (A) (A) (A) (A) (A) (A) (A)
                 (A) (A) (A) (A) (A) (A) (A) (A) (A) (A) (A) (A)
                 (A) (A) (A) (A) (A) (A) (A) (A) (A) (A) (A) (A)
                 (A) (A) (A) (A) (A) (A) (A) (A) (A) (A) (A) (A)
                 (A) (A) (A) (A) (A) (A) (A) (A) (A) (A) (A) (A)
                 (A) (A) (A) (A) (A) (A) (A) (A) (A) (A) (A) (A)
                 (A) (A) (A) (A) (A) (A) (A) (A) (A) (A) (A) (A)
                 (A) (A) (A) (A) (A) (A) (A) (A) (A) (A) (A) (A)
                 (A) (A) (A) (A) (A) (A) (A) (A) (A) (A) (A) (A)
                 (A) (A) (A) (A) (A) (A) (A) (A) (A) (A) (A) (A)
                 (A) (A) (A) (A)
 The electronic state is 1-A.
 Alpha  occ. eigenvalues --  -10.19968 -10.19534 -10.19424 -10.19170 -10.19163
 Alpha  occ. eigenvalues --  -10.19085 -10.19018  -0.86080  -0.77565  -0.74836
 Alpha  occ. eigenvalues --   -0.68634  -0.61050  -0.58385  -0.51375  -0.46644
 Alpha  occ. eigenvalues --   -0.45547  -0.42497  -0.41545  -0.40717  -0.39948
 Alpha  occ. eigenvalues --   -0.35501  -0.34717  -0.33824  -0.25584  -0.24306
 Alpha virt. eigenvalues --   -0.01518  -0.00665   0.00557   0.01907   0.02492
 Alpha virt. eigenvalues --    0.04236   0.04664   0.05172   0.06554   0.06910
 Alpha virt. eigenvalues --    0.07767   0.08225   0.08929   0.10334   0.12187
 Alpha virt. eigenvalues --    0.12732   0.13000   0.13431   0.14092   0.15544
 Alpha virt. eigenvalues --    0.16164   0.16695   0.17317   0.18050   0.19491
 Alpha virt. eigenvalues --    0.19713   0.21403   0.21712   0.22204   0.22708
 Alpha virt. eigenvalues --    0.23384   0.24287   0.24960   0.25666   0.26728
 Alpha virt. eigenvalues --    0.28041   0.28341   0.30009   0.31662   0.33842
 Alpha virt. eigenvalues --    0.34820   0.35676   0.37014   0.39670   0.56062
 Alpha virt. eigenvalues --    0.60202   0.65072   0.66867   0.67414   0.69081
 Alpha virt. eigenvalues --    0.70950   0.71883   0.72119   0.73696   0.74158
 Alpha virt. eigenvalues --    0.74723   0.77386   0.77616   0.78238   0.81808
 Alpha virt. eigenvalues --    0.82173   0.85736   0.89638   0.92423   0.92890
 Alpha virt. eigenvalues --    0.94036   0.96499   1.00909   1.02193   1.04348
 Alpha virt. eigenvalues --    1.08829   1.09185   1.13553   1.14817   1.17118
 Alpha virt. eigenvalues --    1.19265   1.22103   1.25544   1.31522   1.36558
 Alpha virt. eigenvalues --    1.41759   1.43521   1.45715   1.48265   1.49451
 Alpha virt. eigenvalues --    1.50088   1.51461   1.83383   1.84324   1.85734
 Alpha virt. eigenvalues --    1.90788   1.91700   1.92880   1.96049   1.99607
 Alpha virt. eigenvalues --    2.10914   2.12211   2.14655   2.15653   2.18457
 Alpha virt. eigenvalues --    2.19988   2.25178   2.30906   2.32590   2.34438
 Alpha virt. eigenvalues --    2.36907   2.40355   2.59379   2.61681   2.66149
 Alpha virt. eigenvalues --    2.74169   2.74955   2.75419   2.78549   2.91010
 Alpha virt. eigenvalues --    3.07105   3.41335   4.22862   4.24613   4.25923
 Alpha virt. eigenvalues --    4.31715   4.38448   4.45040   4.71530
  Beta  occ. eigenvalues --  -10.19968 -10.19534 -10.19424 -10.19170 -10.19163
  Beta  occ. eigenvalues --  -10.19085 -10.19018  -0.86080  -0.77565  -0.74836
  Beta  occ. eigenvalues --   -0.68634  -0.61050  -0.58385  -0.51375  -0.46644
  Beta  occ. eigenvalues --   -0.45547  -0.42497  -0.41545  -0.40717  -0.39948
  Beta  occ. eigenvalues --   -0.35501  -0.34717  -0.33824  -0.25584  -0.24306
  Beta virt. eigenvalues --   -0.01518  -0.00665   0.00557   0.01907   0.02492
  Beta virt. eigenvalues --    0.04236   0.04664   0.05172   0.06554   0.06910
  Beta virt. eigenvalues --    0.07767   0.08225   0.08929   0.10334   0.12187
  Beta virt. eigenvalues --    0.12732   0.13000   0.13431   0.14092   0.15544
  Beta virt. eigenvalues --    0.16164   0.16695   0.17317   0.18050   0.19491
  Beta virt. eigenvalues --    0.19713   0.21403   0.21712   0.22204   0.22708
  Beta virt. eigenvalues --    0.23384   0.24287   0.24960   0.25666   0.26728
  Beta virt. eigenvalues --    0.28041   0.28341   0.30009   0.31662   0.33842
  Beta virt. eigenvalues --    0.34820   0.35676   0.37014   0.39670   0.56062
  Beta virt. eigenvalues --    0.60202   0.65072   0.66867   0.67414   0.69081
  Beta virt. eigenvalues --    0.70950   0.71883   0.72119   0.73696   0.74158
  Beta virt. eigenvalues --    0.74723   0.77386   0.77616   0.78238   0.81808
  Beta virt. eigenvalues --    0.82173   0.85736   0.89638   0.92423   0.92890
  Beta virt. eigenvalues --    0.94036   0.96499   1.00909   1.02193   1.04348
  Beta virt. eigenvalues --    1.08829   1.09185   1.13553   1.14817   1.17118
  Beta virt. eigenvalues --    1.19265   1.22103   1.25544   1.31522   1.36558
  Beta virt. eigenvalues --    1.41759   1.43521   1.45715   1.48265   1.49451
  Beta virt. eigenvalues --    1.50088   1.51461   1.83383   1.84324   1.85734
  Beta virt. eigenvalues --    1.90788   1.91700   1.92880   1.96049   1.99607
  Beta virt. eigenvalues --    2.10914   2.12211   2.14655   2.15653   2.18457
  Beta virt. eigenvalues --    2.19988   2.25178   2.30906   2.32590   2.34438
  Beta virt. eigenvalues --    2.36907   2.40355   2.59379   2.61681   2.66149
  Beta virt. eigenvalues --    2.74169   2.74955   2.75419   2.78549   2.91010
  Beta virt. eigenvalues --    3.07105   3.41335   4.22862   4.24613   4.25923
  Beta virt. eigenvalues --    4.31715   4.38448   4.45040   4.71530
          Condensed to atoms (all electrons):
               1          2          3          4          5          6
     1  C    7.860741  -0.590803  -0.129904  -0.522580  -0.384232  -0.013484
     2  C   -0.590803   6.104141   0.453949  -0.293422   0.580810  -0.116709
     3  H   -0.129904   0.453949   0.492109  -0.013571   0.035966  -0.008078
     4  C   -0.522580  -0.293422  -0.013571   9.119145  -2.775170  -0.055612
     5  C   -0.384232   0.580810   0.035966  -2.775170   8.369463   0.192788
     6  C   -0.013484  -0.116709  -0.008078  -0.055612   0.192788   5.643761
     7  C   -0.194192  -0.026386   0.002031  -0.099786   0.520160  -0.175799
     8  H    0.028133  -0.008488   0.003436   0.030402   0.221865  -0.012274
     9  C   -0.378279   0.040048   0.002107   0.273864  -0.108505   0.367559
    10  H    0.019593  -0.000159   0.000002  -0.013567  -0.007428   0.288112
    11  H    0.014983  -0.000063  -0.000000  -0.003043  -0.013389   0.003828
    12  H    0.001927   0.000529  -0.000000   0.005112   0.006292  -0.005069
    13  H   -0.102486   0.417621  -0.019764   0.008250   0.004533  -0.004955
    14  H   -0.119882   0.421951  -0.020365   0.024478  -0.001967   0.000298
    15  H   -0.010484   0.003990   0.000396   0.222632   0.059468  -0.006238
               7          8          9         10         11         12
     1  C   -0.194192   0.028133  -0.378279   0.019593   0.014983   0.001927
     2  C   -0.026386  -0.008488   0.040048  -0.000159  -0.000063   0.000529
     3  H    0.002031   0.003436   0.002107   0.000002  -0.000000  -0.000000
     4  C   -0.099786   0.030402   0.273864  -0.013567  -0.003043   0.005112
     5  C    0.520160   0.221865  -0.108505  -0.007428  -0.013389   0.006292
     6  C   -0.175799  -0.012274   0.367559   0.288112   0.003828  -0.005069
     7  C    5.318409   0.004344   0.545370   0.009877   0.281558   0.011452
     8  H    0.004344   0.553259   0.011685   0.000019  -0.004768  -0.000158
     9  C    0.545370   0.011685   5.129570  -0.006660   0.007209   0.272004
    10  H    0.009877   0.000019  -0.006660   0.541598  -0.000164  -0.005051
    11  H    0.281558  -0.004768   0.007209  -0.000164   0.542391  -0.005170
    12  H    0.011452  -0.000158   0.272004  -0.005051  -0.005170   0.543271
    13  H   -0.003648   0.000047   0.003945  -0.000004   0.000002   0.000000
    14  H   -0.005250   0.000034   0.004250  -0.000004   0.000002   0.000000
    15  H   -0.012747  -0.000188   0.013016  -0.003893   0.000018  -0.000139
              13         14         15
     1  C   -0.102486  -0.119882  -0.010484
     2  C    0.417621   0.421951   0.003990
     3  H   -0.019764  -0.020365   0.000396
     4  C    0.008250   0.024478   0.222632
     5  C    0.004533  -0.001967   0.059468
     6  C   -0.004955   0.000298  -0.006238
     7  C   -0.003648  -0.005250  -0.012747
     8  H    0.000047   0.000034  -0.000188
     9  C    0.003945   0.004250   0.013016
    10  H   -0.000004  -0.000004  -0.003893
    11  H    0.000002   0.000002   0.000018
    12  H    0.000000   0.000000  -0.000139
    13  H    0.514125  -0.044107   0.001432
    14  H   -0.044107   0.516490   0.001510
    15  H    0.001432   0.001510   0.557924
          Atomic-Atomic Spin Densities.
               1          2          3          4          5          6
     1  C   -0.000000  -0.000000  -0.000000   0.000000  -0.000000  -0.000000
     2  C   -0.000000   0.000000   0.000000  -0.000000   0.000000   0.000000
     3  H   -0.000000   0.000000  -0.000000  -0.000000   0.000000  -0.000000
     4  C    0.000000  -0.000000  -0.000000  -0.000000  -0.000000   0.000000
     5  C   -0.000000   0.000000   0.000000  -0.000000   0.000000  -0.000000
     6  C   -0.000000   0.000000  -0.000000   0.000000  -0.000000  -0.000000
     7  C    0.000000  -0.000000   0.000000   0.000000  -0.000000   0.000000
     8  H    0.000000  -0.000000   0.000000   0.000000  -0.000000  -0.000000
     9  C    0.000000   0.000000   0.000000  -0.000000   0.000000   0.000000
    10  H    0.000000  -0.000000   0.000000  -0.000000  -0.000000   0.000000
    11  H    0.000000   0.000000  -0.000000  -0.000000  -0.000000   0.000000
    12  H   -0.000000   0.000000  -0.000000   0.000000   0.000000  -0.000000
    13  H   -0.000000   0.000000  -0.000000  -0.000000   0.000000  -0.000000
    14  H    0.000000  -0.000000  -0.000000  -0.000000   0.000000   0.000000
    15  H   -0.000000   0.000000  -0.000000   0.000000   0.000000  -0.000000
               7          8          9         10         11         12
     1  C    0.000000   0.000000   0.000000   0.000000   0.000000  -0.000000
     2  C   -0.000000  -0.000000   0.000000  -0.000000   0.000000   0.000000
     3  H    0.000000   0.000000   0.000000   0.000000  -0.000000  -0.000000
     4  C    0.000000   0.000000  -0.000000  -0.000000  -0.000000   0.000000
     5  C   -0.000000  -0.000000   0.000000  -0.000000  -0.000000   0.000000
     6  C    0.000000  -0.000000   0.000000   0.000000   0.000000  -0.000000
     7  C    0.000000   0.000000  -0.000000   0.000000   0.000000  -0.000000
     8  H    0.000000   0.000000   0.000000   0.000000   0.000000  -0.000000
     9  C   -0.000000   0.000000  -0.000000  -0.000000  -0.000000   0.000000
    10  H    0.000000   0.000000  -0.000000  -0.000000  -0.000000   0.000000
    11  H    0.000000   0.000000  -0.000000  -0.000000  -0.000000   0.000000
    12  H   -0.000000  -0.000000   0.000000   0.000000   0.000000  -0.000000
    13  H   -0.000000  -0.000000   0.000000   0.000000  -0.000000  -0.000000
    14  H   -0.000000  -0.000000   0.000000  -0.000000  -0.000000  -0.000000
    15  H   -0.000000  -0.000000   0.000000   0.000000   0.000000  -0.000000
              13         14         15
     1  C   -0.000000   0.000000  -0.000000
     2  C    0.000000  -0.000000   0.000000
     3  H   -0.000000  -0.000000  -0.000000
     4  C   -0.000000  -0.000000   0.000000
     5  C    0.000000   0.000000   0.000000
     6  C   -0.000000   0.000000  -0.000000
     7  C   -0.000000  -0.000000  -0.000000
     8  H   -0.000000  -0.000000  -0.000000
     9  C    0.000000   0.000000   0.000000
    10  H    0.000000  -0.000000   0.000000
    11  H   -0.000000  -0.000000   0.000000
    12  H   -0.000000  -0.000000  -0.000000
    13  H   -0.000000  -0.000000  -0.000000
    14  H   -0.000000  -0.000000  -0.000000
    15  H   -0.000000  -0.000000   0.000000
 Mulliken charges and spin densities:
               1          2
     1  C    0.520950   0.000000
     2  C   -0.987009   0.000000
     3  H    0.201685  -0.000000
     4  C    0.092868  -0.000000
     5  C   -0.700654  -0.000000
     6  C   -0.098126   0.000000
     7  C   -0.175394   0.000000
     8  H    0.172653   0.000000
     9  C   -0.177183  -0.000000
    10  H    0.177730  -0.000000
    11  H    0.176606  -0.000000
    12  H    0.174999  -0.000000
    13  H    0.225008  -0.000000
    14  H    0.222562  -0.000000
    15  H    0.173305   0.000000
 Sum of Mulliken charges =  -0.00000  -0.00000
 Mulliken charges and spin densities with hydrogens summed into heavy atoms:
               1          2
     1  C    0.520950   0.000000
     2  C   -0.337754   0.000000
     4  C    0.266173  -0.000000
     5  C   -0.528001  -0.000000
     6  C    0.079604   0.000000
     7  C    0.001212   0.000000
     9  C   -0.002184  -0.000000
 Electronic spatial extent (au):  <R**2>=            715.1139
 Charge=             -0.0000 electrons
 Dipole moment (field-independent basis, Debye):
    X=             -0.4016    Y=             -0.0721    Z=              0.0409  Tot=              0.4101
 Quadrupole moment (field-independent basis, Debye-Ang):
   XX=            -39.0826   YY=            -39.1214   ZZ=            -46.8346
   XY=              0.3321   XZ=             -0.0253   YZ=             -0.0895
 Traceless Quadrupole moment (field-independent basis, Debye-Ang):
   XX=              2.5970   YY=              2.5581   ZZ=             -5.1551
   XY=              0.3321   XZ=             -0.0253   YZ=             -0.0895
 Octapole moment (field-independent basis, Debye-Ang**2):
  XXX=              5.4381  YYY=              1.3878  ZZZ=              0.1743  XYY=              0.1487
  XXY=             -0.8582  XXZ=              0.0476  XZZ=             -3.3177  YZZ=             -0.5978
  YYZ=              0.1102  XYZ=              0.1119
 Hexadecapole moment (field-independent basis, Debye-Ang**3):
 XXXX=           -622.8462 YYYY=           -299.4775 ZZZZ=            -65.3579 XXXY=              0.9836
 XXXZ=              0.1591 YYYX=             -1.8079 YYYZ=             -0.3107 ZZZX=             -0.3188
 ZZZY=             -0.1746 XXYY=           -146.4033 XXZZ=           -124.5950 YYZZ=            -70.8456
 XXYZ=             -0.4255 YYXZ=              0.1641 ZZXY=              1.6550
 N-N= 2.695519629024D+02 E-N=-1.166831084426D+03  KE= 2.688840388248D+02
                          Isotropic Fermi Contact Couplings
        Atom                 a.u.       MegaHertz       Gauss      10(-4) cm-1
     1  C(13)             -0.00000      -0.00000      -0.00000      -0.00000
     2  C(13)             -0.00000      -0.00000      -0.00000      -0.00000
     3  H(1)              -0.00000      -0.00000      -0.00000      -0.00000
     4  C(13)             -0.00000      -0.00000      -0.00000      -0.00000
     5  C(13)             -0.00000      -0.00000      -0.00000      -0.00000
     6  C(13)              0.00000       0.00000       0.00000       0.00000
     7  C(13)              0.00000       0.00000       0.00000       0.00000
     8  H(1)               0.00000       0.00000       0.00000       0.00000
     9  C(13)              0.00000       0.00000       0.00000       0.00000
    10  H(1)               0.00000       0.00000       0.00000       0.00000
    11  H(1)               0.00000       0.00000       0.00000       0.00000
    12  H(1)              -0.00000      -0.00000      -0.00000      -0.00000
    13  H(1)               0.00000       0.00000       0.00000       0.00000
    14  H(1)               0.00000       0.00000       0.00000       0.00000
    15  H(1)              -0.00000      -0.00000      -0.00000      -0.00000
 --------------------------------------------------------
       Center         ----  Spin Dipole Couplings  ----
                      3XX-RR        3YY-RR        3ZZ-RR
 --------------------------------------------------------
     1   Atom       -0.000000      0.000000      0.000000
     2   Atom        0.000000     -0.000000     -0.000000
     3   Atom       -0.000000      0.000000     -0.000000
     4   Atom       -0.000000     -0.000000      0.000000
     5   Atom        0.000000      0.000000     -0.000000
     6   Atom        0.000000     -0.000000     -0.000000
     7   Atom        0.000000     -0.000000      0.000000
     8   Atom        0.000000     -0.000000      0.000000
     9   Atom       -0.000000     -0.000000      0.000000
    10   Atom        0.000000     -0.000000      0.000000
    11   Atom       -0.000000     -0.000000      0.000000
    12   Atom        0.000000     -0.000000      0.000000
    13   Atom       -0.000000      0.000000     -0.000000
    14   Atom       -0.000000      0.000000     -0.000000
    15   Atom        0.000000     -0.000000     -0.000000
 --------------------------------------------------------
                        XY            XZ            YZ
 --------------------------------------------------------
     1   Atom        0.000000      0.000000      0.000000
     2   Atom       -0.000000     -0.000000     -0.000000
     3   Atom        0.000000     -0.000000     -0.000000
     4   Atom       -0.000000     -0.000000      0.000000
     5   Atom       -0.000000      0.000000     -0.000000
     6   Atom        0.000000     -0.000000      0.000000
     7   Atom        0.000000     -0.000000      0.000000
     8   Atom        0.000000     -0.000000      0.000000
     9   Atom       -0.000000      0.000000     -0.000000
    10   Atom        0.000000     -0.000000      0.000000
    11   Atom       -0.000000     -0.000000      0.000000
    12   Atom        0.000000     -0.000000      0.000000
    13   Atom       -0.000000      0.000000      0.000000
    14   Atom       -0.000000     -0.000000     -0.000000
    15   Atom       -0.000000     -0.000000     -0.000000
 --------------------------------------------------------


 ---------------------------------------------------------------------------------
              Anisotropic Spin Dipole Couplings in Principal Axis System
 ---------------------------------------------------------------------------------

       Atom             a.u.   MegaHertz   Gauss  10(-4) cm-1        Axes

              Baa    -0.0000    -0.000    -0.000    -0.000  0.9603 -0.2783 -0.0181
     1 C(13)  Bbb     0.0000     0.000     0.000     0.000 -0.0462 -0.2227  0.9738
              Bcc     0.0000     0.000     0.000     0.000  0.2750  0.9343  0.2267
 
              Baa    -0.0000    -0.000    -0.000    -0.000  0.3440  0.8807  0.3256
     2 C(13)  Bbb     0.0000     0.000     0.000     0.000 -0.1291 -0.2991  0.9454
              Bcc     0.0000     0.000     0.000     0.000  0.9301 -0.3672  0.0108
 
              Baa    -0.0000    -0.000    -0.000    -0.000  0.9941 -0.0916  0.0584
     3 H(1)   Bbb    -0.0000    -0.000    -0.000    -0.000 -0.0578  0.0100  0.9983
              Bcc     0.0000     0.000     0.000     0.000  0.0921  0.9957 -0.0047
 
              Baa    -0.0000    -0.000    -0.000    -0.000  0.6541  0.7489 -0.1060
     4 C(13)  Bbb     0.0000     0.000     0.000     0.000  0.3128 -0.1402  0.9394
              Bcc     0.0000     0.000     0.000     0.000  0.6887 -0.6477 -0.3260
 
              Baa    -0.0000    -0.000    -0.000    -0.000 -0.3098 -0.0843  0.9470
     5 C(13)  Bbb     0.0000     0.000     0.000     0.000  0.5451  0.8004  0.2496
              Bcc     0.0000     0.000     0.000     0.000  0.7790 -0.5935  0.2020
 
              Baa    -0.0000    -0.000    -0.000    -0.000 -0.3484  0.8578 -0.3780
     6 C(13)  Bbb    -0.0000    -0.000    -0.000    -0.000 -0.1130  0.3619  0.9253
              Bcc     0.0000     0.000     0.000     0.000  0.9305  0.3651 -0.0291
 
              Baa    -0.0000    -0.000    -0.000    -0.000 -0.5988  0.7954 -0.0931
     7 C(13)  Bbb     0.0000     0.000     0.000     0.000  0.0832  0.1774  0.9806
              Bcc     0.0000     0.000     0.000     0.000  0.7965  0.5795 -0.1725
 
              Baa    -0.0000    -0.000    -0.000    -0.000 -0.0444  0.9893 -0.1393
     8 H(1)   Bbb     0.0000     0.000     0.000     0.000  0.0073  0.1397  0.9902
              Bcc     0.0000     0.000     0.000     0.000  0.9990  0.0430 -0.0135
 
              Baa    -0.0000    -0.000    -0.000    -0.000  0.7042  0.7012 -0.1111
     9 C(13)  Bbb     0.0000     0.000     0.000     0.000 -0.3672  0.4937  0.7883
              Bcc     0.0000     0.000     0.000     0.000  0.6077 -0.5144  0.6051
 
              Baa    -0.0000    -0.000    -0.000    -0.000 -0.0555  0.9958 -0.0731
    10 H(1)   Bbb     0.0000     0.000     0.000     0.000 -0.0195  0.0721  0.9972
              Bcc     0.0000     0.000     0.000     0.000  0.9983  0.0567  0.0154
 
              Baa    -0.0000    -0.000    -0.000    -0.000  0.5865  0.8098 -0.0124
    11 H(1)   Bbb     0.0000     0.000     0.000     0.000  0.8088 -0.5849  0.0606
              Bcc     0.0000     0.000     0.000     0.000 -0.0419  0.0456  0.9981
 
              Baa    -0.0000    -0.000    -0.000    -0.000 -0.4576  0.8846 -0.0895
    12 H(1)   Bbb     0.0000     0.000     0.000     0.000  0.3169  0.2563  0.9132
              Bcc     0.0000     0.000     0.000     0.000  0.8308  0.3895 -0.3976
 
              Baa    -0.0000    -0.000    -0.000    -0.000 -0.4023 -0.1092  0.9090
    13 H(1)   Bbb     0.0000     0.000     0.000     0.000  0.8356  0.3619  0.4133
              Bcc     0.0000     0.000     0.000     0.000 -0.3741  0.9258 -0.0543
 
              Baa    -0.0000    -0.000    -0.000    -0.000  0.5401  0.3203  0.7783
    14 H(1)   Bbb     0.0000     0.000     0.000     0.000  0.6986  0.3451 -0.6268
              Bcc     0.0000     0.000     0.000     0.000 -0.4693  0.8822 -0.0374
 
              Baa    -0.0000    -0.000    -0.000    -0.000  0.2624  0.5513  0.7920
    15 H(1)   Bbb     0.0000     0.000     0.000     0.000 -0.1621  0.8342 -0.5270
              Bcc     0.0000     0.000     0.000     0.000  0.9513 -0.0099 -0.3082
 

 ---------------------------------------------------------------------------------

 1\1\GINC-NODE31\SP\UB3LYP\6-31+G(d)\C7H8\YANZ\12-Oct-2023\0\\# ub3lyp/
 6-31+g(d)\\tmpdir/M3_ref_15.gjf\\0,1\C,0,0.33039499,0.70663737,-0.0168
 9504\C,0,-1.07240839,1.28243937,0.02074375\H,0,-1.08734547,2.3742003,0
 .00010213\C,0,0.35803021,-0.69509548,-0.06228099\C,0,1.51456879,1.4259
 5753,0.00431597\C,0,1.5691386,-1.37271489,-0.06897614\C,0,2.73397309,0
 .74492017,-0.01998226\H,0,1.49361496,2.51222136,0.0410451\C,0,2.760863
 23,-0.64577722,-0.05543502\H,0,1.58781592,-2.45944017,-0.09245997\H,0,
 3.66448683,1.30480451,-0.00921086\H,0,3.71236256,-1.16918432,-0.073236
 01\H,0,-1.60205949,0.84922693,0.89070546\H,0,-1.65168046,0.82749647,-0
 .80422442\H,0,-0.64898759,-1.14630964,-0.03800929\\Version=ES64L-G16Re
 vA.03\State=1-A\HF=-271.5696717\S2=0.\S2-1=0.\S2A=0.\RMSD=6.498e-09\Di
 pole=-0.1551558,0.0403732,0.0180437\Quadrupole=2.1136577,1.7170781,-3.
 8307358,0.1499966,-0.0729645,0.1003136\PG=C01 [X(C7H8)]\\@


 I DO NOT DEFINE TIME, SPACE, PLACE, AND MOTION, AS BEING WELL KNOWN TO ALL.
                                            -- NEWTON (1642-1726), PRINCIPIA
 Job cpu time:       0 days  0 hours  2 minutes 44.8 seconds.
 Elapsed time:       0 days  0 hours  0 minutes 44.3 seconds.
 File lengths (MBytes):  RWF=     20 Int=      0 D2E=      0 Chk=      3 Scr=      1
 Normal termination of Gaussian 16 at Thu Oct 12 15:25:40 2023.
