 Entering Gaussian System, Link 0=g16
 Initial command:
 /share/apps/gaussian/g16/l1.exe "/tmp/58287.mgr/Gau-21259.inp" -scrdir="/tmp/58287.mgr/"
 Entering Link 1 = /share/apps/gaussian/g16/l1.exe PID=     21260.
  
 Copyright (c) 1988,1990,1992,1993,1995,1998,2003,2009,2016,
            Gaussian, Inc.  All Rights Reserved.
  
 This is part of the Gaussian(R) 16 program.  It is based on
 the Gaussian(R) 09 system (copyright 2009, Gaussian, Inc.),
 the Gaussian(R) 03 system (copyright 2003, Gaussian, Inc.),
 the Gaussian(R) 98 system (copyright 1998, Gaussian, Inc.),
 the Gaussian(R) 94 system (copyright 1995, Gaussian, Inc.),
 the Gaussian 92(TM) system (copyright 1992, Gaussian, Inc.),
 the Gaussian 90(TM) system (copyright 1990, Gaussian, Inc.),
 the Gaussian 88(TM) system (copyright 1988, Gaussian, Inc.),
 the Gaussian 86(TM) system (copyright 1986, Carnegie Mellon
 University), and the Gaussian 82(TM) system (copyright 1983,
 Carnegie Mellon University). Gaussian is a federally registered
 trademark of Gaussian, Inc.
  
 This software contains proprietary and confidential information,
 including trade secrets, belonging to Gaussian, Inc.
  
 This software is provided under written license and may be
 used, copied, transmitted, or stored only in accord with that
 written license.
  
 The following legend is applicable only to US Government
 contracts under FAR:
  
                    RESTRICTED RIGHTS LEGEND
  
 Use, reproduction and disclosure by the US Government is
 subject to restrictions as set forth in subparagraphs (a)
 and (c) of the Commercial Computer Software - Restricted
 Rights clause in FAR 52.227-19.
  
 Gaussian, Inc.
 340 Quinnipiac St., Bldg. 40, Wallingford CT 06492
  
  
 ---------------------------------------------------------------
 Warning -- This program may not be used in any manner that
 competes with the business of Gaussian, Inc. or will provide
 assistance to any competitor of Gaussian, Inc.  The licensee
 of this program is prohibited from giving any competitor of
 Gaussian, Inc. access to this program.  By using this program,
 the user acknowledges that Gaussian, Inc. is engaged in the
 business of creating and licensing software in the field of
 computational chemistry and represents and warrants to the
 licensee that it is not a competitor of Gaussian, Inc. and that
 it will not use this program in any manner prohibited above.
 ---------------------------------------------------------------
  

 Cite this work as:
 Gaussian 16, Revision A.03,
 M. J. Frisch, G. W. Trucks, H. B. Schlegel, G. E. Scuseria, 
 M. A. Robb, J. R. Cheeseman, G. Scalmani, V. Barone, 
 G. A. Petersson, H. Nakatsuji, X. Li, M. Caricato, A. V. Marenich, 
 J. Bloino, B. G. Janesko, R. Gomperts, B. Mennucci, H. P. Hratchian, 
 J. V. Ortiz, A. F. Izmaylov, J. L. Sonnenberg, D. Williams-Young, 
 F. Ding, F. Lipparini, F. Egidi, J. Goings, B. Peng, A. Petrone, 
 T. Henderson, D. Ranasinghe, V. G. Zakrzewski, J. Gao, N. Rega, 
 G. Zheng, W. Liang, M. Hada, M. Ehara, K. Toyota, R. Fukuda, 
 J. Hasegawa, M. Ishida, T. Nakajima, Y. Honda, O. Kitao, H. Nakai, 
 T. Vreven, K. Throssell, J. A. Montgomery, Jr., J. E. Peralta, 
 F. Ogliaro, M. J. Bearpark, J. J. Heyd, E. N. Brothers, K. N. Kudin, 
 V. N. Staroverov, T. A. Keith, R. Kobayashi, J. Normand, 
 K. Raghavachari, A. P. Rendell, J. C. Burant, S. S. Iyengar, 
 J. Tomasi, M. Cossi, J. M. Millam, M. Klene, C. Adamo, R. Cammi, 
 J. W. Ochterski, R. L. Martin, K. Morokuma, O. Farkas, 
 J. B. Foresman, and D. J. Fox, Gaussian, Inc., Wallingford CT, 2016.
 
 ******************************************
 Gaussian 16:  ES64L-G16RevA.03 25-Dec-2016
                12-Oct-2023 
 ******************************************
 %nprocshared=4
 Will use up to    4 processors via shared memory.
 %mem=4GB
 ------------------
 # ub3lyp/6-31+g(d)
 ------------------
 1/38=1,172=1/1;
 2/12=2,17=6,18=5,40=1/2;
 3/5=1,6=6,7=11,11=2,25=1,30=1,74=-5,116=2/1,2,3;
 4//1;
 5/5=2,38=5/2;
 6/7=2,8=2,9=2,10=2,28=1/1;
 99/5=1,9=1/99;
 --------------------
 tmpdir/M3_ref_27.gjf
 --------------------
 Symbolic Z-matrix:
 Charge =  0 Multiplicity = 2
 C                    -1.0331   -1.31842  -0.02875 
 C                    -1.56036  -0.78283   1.30257 
 H                    -1.10669  -1.20451   2.20001 
 H                    -0.02608  -0.8672   -0.05302 
 H                    -0.99836  -2.40914  -0.07674 
 H                    -1.63048  -0.85812  -0.82945 
 H                    -1.73679   0.27898   1.24464 
 
                          Input orientation:                          
 ---------------------------------------------------------------------
 Center     Atomic      Atomic             Coordinates (Angstroms)
 Number     Number       Type             X           Y           Z
 ---------------------------------------------------------------------
      1          6           0       -1.033097   -1.318418   -0.028751
      2          6           0       -1.560365   -0.782829    1.302571
      3          1           0       -1.106686   -1.204513    2.200013
      4          1           0       -0.026080   -0.867203   -0.053023
      5          1           0       -0.998356   -2.409144   -0.076742
      6          1           0       -1.630484   -0.858124   -0.829448
      7          1           0       -1.736791    0.278977    1.244636
 ---------------------------------------------------------------------
                    Distance matrix (angstroms):
                    1          2          3          4          5
     1  C    0.000000
     2  C    1.528818   0.000000
     3  H    2.232886   1.090433   0.000000
     4  H    1.103752   2.049094   2.521440   0.000000
     5  H    1.092334   2.205279   2.578078   1.823037   0.000000
     6  H    1.099935   2.134500   3.093862   1.782423   1.836250
     7  H    2.160641   1.077922   1.873638   2.433964   3.085016
                    6          7
     6  H    0.000000
     7  H    2.367726   0.000000
 Stoichiometry    C2H5(2)
 Framework group  C1[X(C2H5)]
 Deg. of freedom    15
 Full point group                 C1      NOp   1
 Largest Abelian subgroup         C1      NOp   1
 Largest concise Abelian subgroup C1      NOp   1
                         Standard orientation:                         
 ---------------------------------------------------------------------
 Center     Atomic      Atomic             Coordinates (Angstroms)
 Number     Number       Type             X           Y           Z
 ---------------------------------------------------------------------
      1          6           0        0.714226   -0.012286    0.002506
      2          6           0       -0.810587   -0.005756   -0.107890
      3          1           0       -1.316655   -0.914941    0.218180
      4          1           0        0.846105    0.037650    1.097213
      5          1           0        1.178720   -0.901592   -0.429436
      6          1           0        1.080189    0.932011   -0.426714
      7          1           0       -1.210195    0.955126    0.173062
 ---------------------------------------------------------------------
 Rotational constants (GHZ):          96.5641844          22.6600514          21.0654267
 Standard basis: 6-31+G(d) (6D, 7F)
 There are    48 symmetry adapted cartesian basis functions of A   symmetry.
 There are    48 symmetry adapted basis functions of A   symmetry.
    48 basis functions,    84 primitive gaussians,    48 cartesian basis functions
     9 alpha electrons        8 beta electrons
       nuclear repulsion energy        36.7126151286 Hartrees.
 NAtoms=    7 NActive=    7 NUniq=    7 SFac= 1.00D+00 NAtFMM=   60 NAOKFM=F Big=F
 Integral buffers will be    131072 words long.
 Raffenetti 2 integral format.
 Two-electron integral symmetry is turned on.
 One-electron integrals computed using PRISM.
 NBasis=    48 RedAO= T EigKep=  4.07D-04  NBF=    48
 NBsUse=    48 1.00D-06 EigRej= -1.00D+00 NBFU=    48
 ExpMin= 4.38D-02 ExpMax= 3.05D+03 ExpMxC= 4.57D+02 IAcc=3 IRadAn=         5 AccDes= 0.00D+00
 Harris functional with IExCor=  402 and IRadAn=       5 diagonalized for initial guess.
 HarFok:  IExCor=  402 AccDes= 0.00D+00 IRadAn=         5 IDoV= 1 UseB2=F ITyADJ=14
 ICtDFT=  3500011 ScaDFX=  1.000000  1.000000  1.000000  1.000000
 FoFCou: FMM=F IPFlag=           0 FMFlag=      100000 FMFlg1=           0
         NFxFlg=           0 DoJE=T BraDBF=F KetDBF=T FulRan=T
         wScrn=  0.000000 ICntrl=       500 IOpCl=  0 I1Cent=   200000004 NGrid=           0
         NMat0=    1 NMatS0=      1 NMatT0=    0 NMatD0=    1 NMtDS0=    0 NMtDT0=    0
 Petite list used in FoFCou.
 Initial guess <Sx>= 0.0000 <Sy>= 0.0000 <Sz>= 0.5000 <S**2>= 0.7500 S= 0.5000
 Keep R1 and R2 ints in memory in canonical form, NReq=4869967.
 Requested convergence on RMS density matrix=1.00D-08 within 128 cycles.
 Requested convergence on MAX density matrix=1.00D-06.
 Requested convergence on             energy=1.00D-06.
 No special actions if energy rises.
 SCF Done:  E(UB3LYP) =  -79.1546717208     A.U. after   12 cycles
            NFock= 12  Conv=0.42D-08     -V/T= 2.0108
 <Sx>= 0.0000 <Sy>= 0.0000 <Sz>= 0.5000 <S**2>= 0.7532 S= 0.5016
 <L.S>= 0.000000000000E+00
 Annihilation of the first spin contaminant:
 S**2 before annihilation     0.7532,   after     0.7500

 **********************************************************************

            Population analysis using the SCF density.

 **********************************************************************

 Orbital symmetries:
 Alpha Orbitals:
       Occupied  (A) (A) (A) (A) (A) (A) (A) (A) (A)
       Virtual   (A) (A) (A) (A) (A) (A) (A) (A) (A) (A) (A) (A)
                 (A) (A) (A) (A) (A) (A) (A) (A) (A) (A) (A) (A)
                 (A) (A) (A) (A) (A) (A) (A) (A) (A) (A) (A) (A)
                 (A) (A) (A)
 Beta  Orbitals:
       Occupied  (A) (A) (A) (A) (A) (A) (A) (A)
       Virtual   (A) (A) (A) (A) (A) (A) (A) (A) (A) (A) (A) (A)
                 (A) (A) (A) (A) (A) (A) (A) (A) (A) (A) (A) (A)
                 (A) (A) (A) (A) (A) (A) (A) (A) (A) (A) (A) (A)
                 (A) (A) (A) (A)
 The electronic state is 2-A.
 Alpha  occ. eigenvalues --  -10.19947 -10.18876  -0.75964  -0.60713  -0.46027
 Alpha  occ. eigenvalues --   -0.42261  -0.37175  -0.36860  -0.21459
 Alpha virt. eigenvalues --    0.01863   0.03297   0.05004   0.05813   0.08149
 Alpha virt. eigenvalues --    0.08850   0.09753   0.14813   0.17207   0.19669
 Alpha virt. eigenvalues --    0.22859   0.23381   0.24882   0.30288   0.62044
 Alpha virt. eigenvalues --    0.64352   0.66044   0.67581   0.68705   0.70495
 Alpha virt. eigenvalues --    0.90468   0.93354   0.94191   0.99517   1.03606
 Alpha virt. eigenvalues --    1.08740   1.28828   1.46445   1.56044   1.89142
 Alpha virt. eigenvalues --    1.91852   2.01534   2.18276   2.23689   2.29038
 Alpha virt. eigenvalues --    2.34306   2.61392   4.09928   4.32307
  Beta  occ. eigenvalues --  -10.18913 -10.18557  -0.74375  -0.58478  -0.45410
  Beta  occ. eigenvalues --   -0.40825  -0.36454  -0.36233
  Beta virt. eigenvalues --   -0.05924   0.02031   0.03484   0.05019   0.06246
  Beta virt. eigenvalues --    0.08128   0.08843   0.11116   0.15129   0.17842
  Beta virt. eigenvalues --    0.19783   0.24101   0.24385   0.25863   0.30843
  Beta virt. eigenvalues --    0.62643   0.64613   0.66909   0.69459   0.71323
  Beta virt. eigenvalues --    0.73506   0.91990   0.93934   0.94572   1.01307
  Beta virt. eigenvalues --    1.04288   1.09207   1.30105   1.48999   1.58955
  Beta virt. eigenvalues --    1.92946   1.94699   2.04155   2.22115   2.25277
  Beta virt. eigenvalues --    2.30094   2.35094   2.62831   4.12375   4.33440
          Condensed to atoms (all electrons):
               1          2          3          4          5          6
     1  C    5.429199   0.170643  -0.040543   0.385841   0.396481   0.409012
     2  C    0.170643   5.531056   0.376374  -0.067108  -0.049838  -0.067445
     3  H   -0.040543   0.376374   0.516808  -0.001946  -0.003580   0.004126
     4  H    0.385841  -0.067108  -0.001946   0.537003  -0.026963  -0.032229
     5  H    0.396481  -0.049838  -0.003580  -0.026963   0.496051  -0.022526
     6  H    0.409012  -0.067445   0.004126  -0.032229  -0.022526   0.509903
     7  H   -0.048126   0.380549  -0.031213  -0.001911   0.004103  -0.005606
               7
     1  C   -0.048126
     2  C    0.380549
     3  H   -0.031213
     4  H   -0.001911
     5  H    0.004103
     6  H   -0.005606
     7  H    0.523785
          Atomic-Atomic Spin Densities.
               1          2          3          4          5          6
     1  C   -0.008192  -0.116033  -0.007899   0.044658  -0.000153   0.000965
     2  C   -0.116033   1.296748  -0.003354  -0.058958  -0.001840  -0.002766
     3  H   -0.007899  -0.003354  -0.032180  -0.001616   0.001021   0.000145
     4  H    0.044658  -0.058958  -0.001616   0.085142  -0.008194  -0.008066
     5  H   -0.000153  -0.001840   0.001021  -0.008194   0.014991   0.002957
     6  H    0.000965  -0.002766   0.000145  -0.008066   0.002957   0.014134
     7  H   -0.006360  -0.004814   0.002346  -0.001642   0.000104   0.001315
               7
     1  C   -0.006360
     2  C   -0.004814
     3  H    0.002346
     4  H   -0.001642
     5  H    0.000104
     6  H    0.001315
     7  H   -0.034277
 Mulliken charges and spin densities:
               1          2
     1  C   -0.702507  -0.093015
     2  C   -0.274232   1.108983
     3  H    0.179974  -0.041536
     4  H    0.207310   0.051325
     5  H    0.206271   0.008886
     6  H    0.204765   0.008685
     7  H    0.178418  -0.043327
 Sum of Mulliken charges =  -0.00000   1.00000
 Mulliken charges and spin densities with hydrogens summed into heavy atoms:
               1          2
     1  C   -0.084160  -0.024119
     2  C    0.084160   1.024119
 Electronic spatial extent (au):  <R**2>=             99.6890
 Charge=             -0.0000 electrons
 Dipole moment (field-independent basis, Debye):
    X=              0.3673    Y=              0.0338    Z=              0.6113  Tot=              0.7140
 Quadrupole moment (field-independent basis, Debye-Ang):
   XX=            -15.4964   YY=            -13.6169   ZZ=            -15.5145
   XY=             -0.0172   XZ=             -0.8985   YZ=              0.0200
 Traceless Quadrupole moment (field-independent basis, Debye-Ang):
   XX=             -0.6205   YY=              1.2590   ZZ=             -0.6386
   XY=             -0.0172   XZ=             -0.8985   YZ=              0.0200
 Octapole moment (field-independent basis, Debye-Ang**2):
  XXX=              0.9601  YYY=              0.1413  ZZZ=              1.9534  XYY=              0.0029
  XXY=             -0.3596  XXZ=              0.7574  XZZ=              1.7076  YZZ=              0.0398
  YYZ=              0.0030  XYZ=              0.1528
 Hexadecapole moment (field-independent basis, Debye-Ang**3):
 XXXX=            -92.1458 YYYY=            -30.0377 ZZZZ=            -27.7276 XXXY=             -0.0297
 XXXZ=             -2.9442 YYYX=             -0.1248 YYYZ=             -0.0275 ZZZX=             -1.2160
 ZZZY=              0.0769 XXYY=            -18.1758 XXZZ=            -20.9370 YYZZ=             -9.9817
 XXYZ=              0.0435 YYXZ=             -1.5684 ZZXY=             -0.0133
 N-N= 3.671261512862D+01 E-N=-2.557893941585D+02  KE= 7.830644066255D+01
                          Isotropic Fermi Contact Couplings
        Atom                 a.u.       MegaHertz       Gauss      10(-4) cm-1
     1  C(13)             -0.01733     -19.47950      -6.95077      -6.49766
     2  C(13)              0.18931     212.82293      75.94052      70.99009
     3  H(1)              -0.00888     -39.70982     -14.16945     -13.24577
     4  H(1)               0.02814     125.76268      44.87525      41.94991
     5  H(1)               0.00504      22.53370       8.04058       7.51643
     6  H(1)               0.00515      23.03205       8.21841       7.68266
     7  H(1)              -0.00958     -42.81854     -15.27872     -14.28273
 --------------------------------------------------------
       Center         ----  Spin Dipole Couplings  ----
                      3XX-RR        3YY-RR        3ZZ-RR
 --------------------------------------------------------
     1   Atom        0.009101     -0.025922      0.016822
     2   Atom       -0.459364     -0.506025      0.965389
     3   Atom       -0.033110      0.033469     -0.000359
     4   Atom        0.009885     -0.014241      0.004356
     5   Atom        0.012632     -0.004391     -0.008241
     6   Atom        0.012871     -0.004053     -0.008818
     7   Atom       -0.045228      0.046927     -0.001699
 --------------------------------------------------------
                        XY            XZ            YZ
 --------------------------------------------------------
     1   Atom       -0.002103      0.021199      0.000012
     2   Atom        0.002214      0.257212      0.018505
     3   Atom        0.053874     -0.005680     -0.026045
     4   Atom        0.000196      0.009484      0.001020
     5   Atom       -0.011307     -0.001278      0.000918
     6   Atom        0.012686     -0.001461     -0.001131
     7   Atom       -0.045990     -0.000619      0.025650
 --------------------------------------------------------


 ---------------------------------------------------------------------------------
              Anisotropic Spin Dipole Couplings in Principal Axis System
 ---------------------------------------------------------------------------------

       Atom             a.u.   MegaHertz   Gauss  10(-4) cm-1        Axes

              Baa    -0.0261    -3.503    -1.250    -1.168  0.0849  0.9955 -0.0422
     1 C(13)  Bbb    -0.0084    -1.132    -0.404    -0.378  0.7627 -0.0922 -0.6401
              Bcc     0.0345     4.635     1.654     1.546  0.6411 -0.0222  0.7671
 
              Baa    -0.5067   -67.993   -24.262   -22.680  0.3914  0.9167 -0.0799
     2 C(13)  Bbb    -0.5039   -67.624   -24.130   -22.557  0.9039 -0.3993 -0.1532
              Bcc     1.0106   135.617    48.391    45.237  0.1724  0.0123  0.9850
 
              Baa    -0.0642   -34.236   -12.216   -11.420  0.8530 -0.5054 -0.1304
     3 H(1)   Bbb    -0.0083    -4.446    -1.586    -1.483  0.2765  0.2257  0.9341
              Bcc     0.0725    38.682    13.803    12.903  0.4427  0.8328 -0.3322
 
              Baa    -0.0143    -7.631    -2.723    -2.545  0.0166  0.9979 -0.0630
     4 H(1)   Bbb    -0.0027    -1.449    -0.517    -0.483 -0.6008  0.0603  0.7971
              Bcc     0.0170     9.080     3.240     3.029  0.7992  0.0246  0.6006
 
              Baa    -0.0101    -5.372    -1.917    -1.792  0.4348  0.8891 -0.1426
     5 H(1)   Bbb    -0.0083    -4.426    -1.579    -1.476  0.1155  0.1020  0.9881
              Bcc     0.0184     9.798     3.496     3.268  0.8931 -0.4461 -0.0583
 
              Baa    -0.0109    -5.809    -2.073    -1.938 -0.4578  0.8754  0.1552
     6 H(1)   Bbb    -0.0089    -4.741    -1.692    -1.581  0.1288 -0.1074  0.9858
              Bcc     0.0198    10.550     3.765     3.519  0.8796  0.4714 -0.0636
 
              Baa    -0.0657   -35.045   -12.505   -11.690  0.9022  0.4033 -0.1530
     7 H(1)   Bbb    -0.0079    -4.237    -1.512    -1.413  0.2588 -0.2225  0.9400
              Bcc     0.0736    39.281    14.017    13.103 -0.3451  0.8876  0.3051
 

 ---------------------------------------------------------------------------------

 1\1\GINC-NODE31\SP\UB3LYP\6-31+G(d)\C2H5(2)\YANZ\12-Oct-2023\0\\# ub3l
 yp/6-31+g(d)\\tmpdir/M3_ref_27.gjf\\0,2\C,0,-1.0330974,-1.3184176,-0.0
 2875126\C,0,-1.56036485,-0.78282937,1.30257086\H,0,-1.10668637,-1.2045
 1272,2.20001314\H,0,-0.0260796,-0.86720344,-0.05302296\H,0,-0.99835638
 ,-2.40914399,-0.07674181\H,0,-1.63048379,-0.85812368,-0.82944811\H,0,-
 1.7367911,0.27897731,1.24463587\\Version=ES64L-G16RevA.03\State=2-A\HF
 =-79.1546717\S2=0.753156\S2-1=0.\S2A=0.750007\RMSD=4.247e-09\Dipole=0.
 2527376,0.0573616,-0.1083757\Quadrupole=-0.6616925,0.7177825,-0.05609,
 -0.2329611,0.7137897,-0.2488866\PG=C01 [X(C2H5)]\\@


 I WANT TO KNOW HOW GOD CREATED THE WORLD.  I AM NOT INTERESTED IN
 THIS OR THAT PHENOMENON, IN THE SPECTRUM OF THIS OR THAT ELEMENT.
 I WANT TO KNOW HIS THOUGHTS, THE REST ARE DETAILS.
     -- ALBERT EINSTEIN
 Job cpu time:       0 days  0 hours  0 minutes 19.4 seconds.
 Elapsed time:       0 days  0 hours  0 minutes  5.0 seconds.
 File lengths (MBytes):  RWF=      6 Int=      0 D2E=      0 Chk=      1 Scr=      1
 Normal termination of Gaussian 16 at Thu Oct 12 15:25:45 2023.
