 Entering Gaussian System, Link 0=g16
 Initial command:
 /share/apps/gaussian/g16/l1.exe "/tmp/58287.mgr/Gau-20611.inp" -scrdir="/tmp/58287.mgr/"
 Entering Link 1 = /share/apps/gaussian/g16/l1.exe PID=     20612.
  
 Copyright (c) 1988,1990,1992,1993,1995,1998,2003,2009,2016,
            Gaussian, Inc.  All Rights Reserved.
  
 This is part of the Gaussian(R) 16 program.  It is based on
 the Gaussian(R) 09 system (copyright 2009, Gaussian, Inc.),
 the Gaussian(R) 03 system (copyright 2003, Gaussian, Inc.),
 the Gaussian(R) 98 system (copyright 1998, Gaussian, Inc.),
 the Gaussian(R) 94 system (copyright 1995, Gaussian, Inc.),
 the Gaussian 92(TM) system (copyright 1992, Gaussian, Inc.),
 the Gaussian 90(TM) system (copyright 1990, Gaussian, Inc.),
 the Gaussian 88(TM) system (copyright 1988, Gaussian, Inc.),
 the Gaussian 86(TM) system (copyright 1986, Carnegie Mellon
 University), and the Gaussian 82(TM) system (copyright 1983,
 Carnegie Mellon University). Gaussian is a federally registered
 trademark of Gaussian, Inc.
  
 This software contains proprietary and confidential information,
 including trade secrets, belonging to Gaussian, Inc.
  
 This software is provided under written license and may be
 used, copied, transmitted, or stored only in accord with that
 written license.
  
 The following legend is applicable only to US Government
 contracts under FAR:
  
                    RESTRICTED RIGHTS LEGEND
  
 Use, reproduction and disclosure by the US Government is
 subject to restrictions as set forth in subparagraphs (a)
 and (c) of the Commercial Computer Software - Restricted
 Rights clause in FAR 52.227-19.
  
 Gaussian, Inc.
 340 Quinnipiac St., Bldg. 40, Wallingford CT 06492
  
  
 ---------------------------------------------------------------
 Warning -- This program may not be used in any manner that
 competes with the business of Gaussian, Inc. or will provide
 assistance to any competitor of Gaussian, Inc.  The licensee
 of this program is prohibited from giving any competitor of
 Gaussian, Inc. access to this program.  By using this program,
 the user acknowledges that Gaussian, Inc. is engaged in the
 business of creating and licensing software in the field of
 computational chemistry and represents and warrants to the
 licensee that it is not a competitor of Gaussian, Inc. and that
 it will not use this program in any manner prohibited above.
 ---------------------------------------------------------------
  

 Cite this work as:
 Gaussian 16, Revision A.03,
 M. J. Frisch, G. W. Trucks, H. B. Schlegel, G. E. Scuseria, 
 M. A. Robb, J. R. Cheeseman, G. Scalmani, V. Barone, 
 G. A. Petersson, H. Nakatsuji, X. Li, M. Caricato, A. V. Marenich, 
 J. Bloino, B. G. Janesko, R. Gomperts, B. Mennucci, H. P. Hratchian, 
 J. V. Ortiz, A. F. Izmaylov, J. L. Sonnenberg, D. Williams-Young, 
 F. Ding, F. Lipparini, F. Egidi, J. Goings, B. Peng, A. Petrone, 
 T. Henderson, D. Ranasinghe, V. G. Zakrzewski, J. Gao, N. Rega, 
 G. Zheng, W. Liang, M. Hada, M. Ehara, K. Toyota, R. Fukuda, 
 J. Hasegawa, M. Ishida, T. Nakajima, Y. Honda, O. Kitao, H. Nakai, 
 T. Vreven, K. Throssell, J. A. Montgomery, Jr., J. E. Peralta, 
 F. Ogliaro, M. J. Bearpark, J. J. Heyd, E. N. Brothers, K. N. Kudin, 
 V. N. Staroverov, T. A. Keith, R. Kobayashi, J. Normand, 
 K. Raghavachari, A. P. Rendell, J. C. Burant, S. S. Iyengar, 
 J. Tomasi, M. Cossi, J. M. Millam, M. Klene, C. Adamo, R. Cammi, 
 J. W. Ochterski, R. L. Martin, K. Morokuma, O. Farkas, 
 J. B. Foresman, and D. J. Fox, Gaussian, Inc., Wallingford CT, 2016.
 
 ******************************************
 Gaussian 16:  ES64L-G16RevA.03 25-Dec-2016
                12-Oct-2023 
 ******************************************
 %nprocshared=4
 Will use up to    4 processors via shared memory.
 %mem=4GB
 ------------------
 # ub3lyp/6-31+g(d)
 ------------------
 1/38=1,172=1/1;
 2/12=2,17=6,18=5,40=1/2;
 3/5=1,6=6,7=11,11=2,25=1,30=1,74=-5,116=2/1,2,3;
 4//1;
 5/5=2,38=5/2;
 6/7=2,8=2,9=2,10=2,28=1/1;
 99/5=1,9=1/99;
 --------------------
 tmpdir/M3_ref_10.gjf
 --------------------
 Symbolic Z-matrix:
 Charge =  0 Multiplicity = 1
 H                    -0.99836  -2.40914  -0.07674 
 C                    -1.0331   -1.31842  -0.02875 
 C                    -1.85835  -0.68255  -1.13486 
 H                    -0.02608  -0.8672   -0.05302 
 H                    -1.41478  -0.93071   0.93497 
 O                    -1.87094   0.49574  -1.12078 
 H                    -2.40083  -1.28897  -1.85186 
 
                          Input orientation:                          
 ---------------------------------------------------------------------
 Center     Atomic      Atomic             Coordinates (Angstroms)
 Number     Number       Type             X           Y           Z
 ---------------------------------------------------------------------
      1          1           0       -0.998356   -2.409144   -0.076742
      2          6           0       -1.033097   -1.318418   -0.028751
      3          6           0       -1.858347   -0.682552   -1.134860
      4          1           0       -0.026080   -0.867203   -0.053023
      5          1           0       -1.414779   -0.930713    0.934974
      6          8           0       -1.870943    0.495744   -1.120785
      7          1           0       -2.400827   -1.288970   -1.851861
 ---------------------------------------------------------------------
                    Distance matrix (angstroms):
                    1          2          3          4          5
     1  H    0.000000
     2  C    1.092334   0.000000
     3  C    2.200072   1.519486   0.000000
     4  H    1.823037   1.103752   2.135807   0.000000
     5  H    1.839222   1.106690   2.131326   1.705479   0.000000
     6  O    3.207773   2.277214   1.178448   2.530071   2.543424
     7  H    2.524433   2.279316   1.084490   3.008842   2.977766
                    6          7
     6  O    0.000000
     7  H    2.000114   0.000000
 Stoichiometry    C2H4O
 Framework group  C1[X(C2H4O)]
 Deg. of freedom    15
 Full point group                 C1      NOp   1
 Largest Abelian subgroup         C1      NOp   1
 Largest concise Abelian subgroup C1      NOp   1
                         Standard orientation:                         
 ---------------------------------------------------------------------
 Center     Atomic      Atomic             Coordinates (Angstroms)
 Number     Number       Type             X           Y           Z
 ---------------------------------------------------------------------
      1          1           0       -1.925369    0.629981   -0.039678
      2          6           0       -1.132086   -0.119854    0.000862
      3          6           0        0.268517    0.469329   -0.002656
      4          1           0       -1.199007   -0.843693   -0.829708
      5          1           0       -1.206303   -0.794436    0.875044
      6          8           0        1.135518   -0.328822   -0.001361
      7          1           0        0.427950    1.541873    0.015994
 ---------------------------------------------------------------------
 Rotational constants (GHZ):          50.0250432          11.2592873           9.7089003
 Standard basis: 6-31+G(d) (6D, 7F)
 There are    65 symmetry adapted cartesian basis functions of A   symmetry.
 There are    65 symmetry adapted basis functions of A   symmetry.
    65 basis functions,   112 primitive gaussians,    65 cartesian basis functions
    12 alpha electrons       12 beta electrons
       nuclear repulsion energy        70.8637099119 Hartrees.
 NAtoms=    7 NActive=    7 NUniq=    7 SFac= 1.00D+00 NAtFMM=   60 NAOKFM=F Big=F
 Integral buffers will be    131072 words long.
 Raffenetti 2 integral format.
 Two-electron integral symmetry is turned on.
 One-electron integrals computed using PRISM.
 NBasis=    65 RedAO= T EigKep=  3.27D-04  NBF=    65
 NBsUse=    65 1.00D-06 EigRej= -1.00D+00 NBFU=    65
 ExpMin= 4.38D-02 ExpMax= 5.48D+03 ExpMxC= 8.25D+02 IAcc=3 IRadAn=         5 AccDes= 0.00D+00
 Harris functional with IExCor=  402 and IRadAn=       5 diagonalized for initial guess.
 HarFok:  IExCor=  402 AccDes= 0.00D+00 IRadAn=         5 IDoV= 1 UseB2=F ITyADJ=14
 ICtDFT=  3500011 ScaDFX=  1.000000  1.000000  1.000000  1.000000
 FoFCou: FMM=F IPFlag=           0 FMFlag=      100000 FMFlg1=           0
         NFxFlg=           0 DoJE=T BraDBF=F KetDBF=T FulRan=T
         wScrn=  0.000000 ICntrl=       500 IOpCl=  0 I1Cent=   200000004 NGrid=           0
         NMat0=    1 NMatS0=      1 NMatT0=    0 NMatD0=    1 NMtDS0=    0 NMtDT0=    0
 Petite list used in FoFCou.
 Initial guess <Sx>= 0.0000 <Sy>= 0.0000 <Sz>= 0.0000 <S**2>=-0.0000 S=-0.0000
 Keep R1 and R2 ints in memory in canonical form, NReq=8155533.
 Requested convergence on RMS density matrix=1.00D-08 within 128 cycles.
 Requested convergence on MAX density matrix=1.00D-06.
 Requested convergence on             energy=1.00D-06.
 No special actions if energy rises.
 SCF Done:  E(UB3LYP) =  -153.829633040     A.U. after   11 cycles
            NFock= 11  Conv=0.20D-08     -V/T= 2.0085
 <Sx>= 0.0000 <Sy>= 0.0000 <Sz>= 0.0000 <S**2>=-0.0000 S=-0.0000
 <L.S>= 0.000000000000E+00
 Annihilation of the first spin contaminant:
 S**2 before annihilation    -0.0000,   after     0.0000

 **********************************************************************

            Population analysis using the SCF density.

 **********************************************************************

 Orbital symmetries:
 Alpha Orbitals:
       Occupied  (A) (A) (A) (A) (A) (A) (A) (A) (A) (A) (A) (A)
       Virtual   (A) (A) (A) (A) (A) (A) (A) (A) (A) (A) (A) (A)
                 (A) (A) (A) (A) (A) (A) (A) (A) (A) (A) (A) (A)
                 (A) (A) (A) (A) (A) (A) (A) (A) (A) (A) (A) (A)
                 (A) (A) (A) (A) (A) (A) (A) (A) (A) (A) (A) (A)
                 (A) (A) (A) (A) (A)
 Beta  Orbitals:
       Occupied  (A) (A) (A) (A) (A) (A) (A) (A) (A) (A) (A) (A)
       Virtual   (A) (A) (A) (A) (A) (A) (A) (A) (A) (A) (A) (A)
                 (A) (A) (A) (A) (A) (A) (A) (A) (A) (A) (A) (A)
                 (A) (A) (A) (A) (A) (A) (A) (A) (A) (A) (A) (A)
                 (A) (A) (A) (A) (A) (A) (A) (A) (A) (A) (A) (A)
                 (A) (A) (A) (A) (A)
 The electronic state is 1-A.
 Alpha  occ. eigenvalues --  -19.16267 -10.28706 -10.19940  -1.08052  -0.74857
 Alpha  occ. eigenvalues --   -0.59964  -0.49051  -0.44918  -0.44531  -0.41586
 Alpha  occ. eigenvalues --   -0.36941  -0.26572
 Alpha virt. eigenvalues --   -0.03905   0.01246   0.02386   0.04742   0.05087
 Alpha virt. eigenvalues --    0.07432   0.07675   0.09398   0.14217   0.16977
 Alpha virt. eigenvalues --    0.17526   0.20546   0.23051   0.24878   0.25583
 Alpha virt. eigenvalues --    0.28531   0.29985   0.33613   0.40428   0.63429
 Alpha virt. eigenvalues --    0.65305   0.67594   0.67955   0.75581   0.76578
 Alpha virt. eigenvalues --    0.89213   0.91649   1.01413   1.05260   1.08345
 Alpha virt. eigenvalues --    1.17372   1.20238   1.23199   1.31223   1.38178
 Alpha virt. eigenvalues --    1.52233   1.55001   1.71796   1.79182   1.80741
 Alpha virt. eigenvalues --    1.89583   2.06318   2.15787   2.22161   2.26103
 Alpha virt. eigenvalues --    2.36984   2.59816   2.60584   2.87562   3.05965
 Alpha virt. eigenvalues --    4.10756   4.18347   4.38644
  Beta  occ. eigenvalues --  -19.16267 -10.28706 -10.19940  -1.08052  -0.74857
  Beta  occ. eigenvalues --   -0.59964  -0.49051  -0.44918  -0.44531  -0.41586
  Beta  occ. eigenvalues --   -0.36941  -0.26572
  Beta virt. eigenvalues --   -0.03905   0.01246   0.02386   0.04742   0.05087
  Beta virt. eigenvalues --    0.07432   0.07675   0.09398   0.14217   0.16977
  Beta virt. eigenvalues --    0.17526   0.20546   0.23051   0.24878   0.25583
  Beta virt. eigenvalues --    0.28531   0.29985   0.33613   0.40428   0.63429
  Beta virt. eigenvalues --    0.65305   0.67594   0.67955   0.75581   0.76578
  Beta virt. eigenvalues --    0.89213   0.91649   1.01413   1.05260   1.08345
  Beta virt. eigenvalues --    1.17372   1.20238   1.23199   1.31223   1.38178
  Beta virt. eigenvalues --    1.52233   1.55001   1.71796   1.79182   1.80741
  Beta virt. eigenvalues --    1.89583   2.06318   2.15787   2.22161   2.26103
  Beta virt. eigenvalues --    2.36984   2.59816   2.60584   2.87562   3.05965
  Beta virt. eigenvalues --    4.10756   4.18347   4.38644
          Condensed to atoms (all electrons):
               1          2          3          4          5          6
     1  H    0.510647   0.361071  -0.038760  -0.022982  -0.021580   0.009416
     2  C    0.361071   5.681191   0.180538   0.386311   0.383348  -0.143761
     3  C   -0.038760   0.180538   4.839580  -0.033861  -0.030948   0.447054
     4  H   -0.022982   0.386311  -0.033861   0.468600  -0.028211  -0.009383
     5  H   -0.021580   0.383348  -0.030948  -0.028211   0.469095  -0.010148
     6  O    0.009416  -0.143761   0.447054  -0.009383  -0.010148   8.116274
     7  H    0.005875  -0.114486   0.390249   0.002011   0.001896  -0.064348
               7
     1  H    0.005875
     2  C   -0.114486
     3  C    0.390249
     4  H    0.002011
     5  H    0.001896
     6  O   -0.064348
     7  H    0.616009
          Atomic-Atomic Spin Densities.
               1          2          3          4          5          6
     1  H    0.000000  -0.000000   0.000000  -0.000000  -0.000000  -0.000000
     2  C   -0.000000  -0.000000  -0.000000  -0.000000  -0.000000  -0.000000
     3  C    0.000000  -0.000000   0.000000   0.000000   0.000000   0.000000
     4  H   -0.000000  -0.000000   0.000000  -0.000000  -0.000000  -0.000000
     5  H   -0.000000  -0.000000   0.000000  -0.000000  -0.000000  -0.000000
     6  O   -0.000000  -0.000000   0.000000  -0.000000  -0.000000  -0.000000
     7  H   -0.000000  -0.000000   0.000000  -0.000000  -0.000000  -0.000000
               7
     1  H   -0.000000
     2  C   -0.000000
     3  C    0.000000
     4  H   -0.000000
     5  H   -0.000000
     6  O   -0.000000
     7  H   -0.000000
 Mulliken charges and spin densities:
               1          2
     1  H    0.196312  -0.000000
     2  C   -0.734212  -0.000000
     3  C    0.246148   0.000000
     4  H    0.237515  -0.000000
     5  H    0.236548  -0.000000
     6  O   -0.345104  -0.000000
     7  H    0.162794  -0.000000
 Sum of Mulliken charges =  -0.00000   0.00000
 Mulliken charges and spin densities with hydrogens summed into heavy atoms:
               1          2
     2  C   -0.063838  -0.000000
     3  C    0.408942   0.000000
     6  O   -0.345104  -0.000000
 Electronic spatial extent (au):  <R**2>=            160.8138
 Charge=             -0.0000 electrons
 Dipole moment (field-independent basis, Debye):
    X=             -2.1338    Y=              1.3185    Z=              0.0086  Tot=              2.5083
 Quadrupole moment (field-independent basis, Debye-Ang):
   XX=            -21.5513   YY=            -17.7655   ZZ=            -18.1579
   XY=              1.5221   XZ=              0.0256   YZ=             -0.0288
 Traceless Quadrupole moment (field-independent basis, Debye-Ang):
   XX=             -2.3931   YY=              1.3927   ZZ=              1.0004
   XY=              1.5221   XZ=              0.0256   YZ=             -0.0288
 Octapole moment (field-independent basis, Debye-Ang**2):
  XXX=             -0.3161  YYY=              0.5812  ZZZ=              0.0647  XYY=              0.6119
  XXY=              1.0871  XXZ=             -0.0852  XZZ=              1.3645  YZZ=             -1.0393
  YYZ=             -0.0179  XYZ=              0.0541
 Hexadecapole moment (field-independent basis, Debye-Ang**3):
 XXXX=           -145.9885 YYYY=            -47.5203 ZZZZ=            -24.4694 XXXY=             -1.7881
 XXXZ=              0.2275 YYYX=              0.5387 YYYZ=              0.0623 ZZZX=             -0.0667
 ZZZY=             -0.0839 XXYY=            -29.8902 XXZZ=            -27.4685 YYZZ=            -11.5271
 XXYZ=             -0.1075 YYXZ=              0.0844 ZZXY=              0.6668
 N-N= 7.086370991185D+01 E-N=-5.007497919189D+02  KE= 1.525391531712D+02
                          Isotropic Fermi Contact Couplings
        Atom                 a.u.       MegaHertz       Gauss      10(-4) cm-1
     1  H(1)               0.00000       0.00000       0.00000       0.00000
     2  C(13)              0.00000       0.00000       0.00000       0.00000
     3  C(13)             -0.00000      -0.00000      -0.00000      -0.00000
     4  H(1)               0.00000       0.00000       0.00000       0.00000
     5  H(1)               0.00000       0.00000       0.00000       0.00000
     6  O(17)              0.00000      -0.00000      -0.00000      -0.00000
     7  H(1)              -0.00000      -0.00000      -0.00000      -0.00000
 --------------------------------------------------------
       Center         ----  Spin Dipole Couplings  ----
                      3XX-RR        3YY-RR        3ZZ-RR
 --------------------------------------------------------
     1   Atom        0.000000      0.000000      0.000000
     2   Atom        0.000000      0.000000      0.000000
     3   Atom        0.000000      0.000000      0.000000
     4   Atom        0.000000      0.000000      0.000000
     5   Atom        0.000000      0.000000      0.000000
     6   Atom        0.000000      0.000000      0.000000
     7   Atom        0.000000      0.000000      0.000000
 --------------------------------------------------------
                        XY            XZ            YZ
 --------------------------------------------------------
     1   Atom        0.000000      0.000000      0.000000
     2   Atom        0.000000      0.000000      0.000000
     3   Atom        0.000000      0.000000      0.000000
     4   Atom        0.000000      0.000000      0.000000
     5   Atom        0.000000      0.000000      0.000000
     6   Atom        0.000000      0.000000      0.000000
     7   Atom        0.000000      0.000000      0.000000
 --------------------------------------------------------


 ---------------------------------------------------------------------------------
              Anisotropic Spin Dipole Couplings in Principal Axis System
 ---------------------------------------------------------------------------------

       Atom             a.u.   MegaHertz   Gauss  10(-4) cm-1        Axes

              Baa     0.0000     0.000     0.000     0.000  1.0000  0.0000  0.0000
     1 H(1)   Bbb     0.0000     0.000     0.000     0.000 -0.0000  1.0000  0.0000
              Bcc     0.0000     0.000     0.000     0.000  0.0000  0.0000  1.0000
 
              Baa     0.0000     0.000     0.000     0.000  1.0000  0.0000  0.0000
     2 C(13)  Bbb     0.0000     0.000     0.000     0.000 -0.0000  1.0000  0.0000
              Bcc     0.0000     0.000     0.000     0.000  0.0000  0.0000  1.0000
 
              Baa     0.0000     0.000     0.000     0.000  1.0000  0.0000  0.0000
     3 C(13)  Bbb     0.0000     0.000     0.000     0.000 -0.0000  1.0000  0.0000
              Bcc     0.0000     0.000     0.000     0.000  0.0000  0.0000  1.0000
 
              Baa     0.0000     0.000     0.000     0.000  1.0000  0.0000  0.0000
     4 H(1)   Bbb     0.0000     0.000     0.000     0.000 -0.0000  1.0000  0.0000
              Bcc     0.0000     0.000     0.000     0.000  0.0000  0.0000  1.0000
 
              Baa     0.0000     0.000     0.000     0.000  1.0000  0.0000  0.0000
     5 H(1)   Bbb     0.0000     0.000     0.000     0.000 -0.0000  1.0000  0.0000
              Bcc     0.0000     0.000     0.000     0.000  0.0000  0.0000  1.0000
 
              Baa     0.0000    -0.000    -0.000    -0.000  1.0000  0.0000  0.0000
     6 O(17)  Bbb     0.0000    -0.000    -0.000    -0.000 -0.0000  1.0000  0.0000
              Bcc     0.0000    -0.000    -0.000    -0.000  0.0000  0.0000  1.0000
 
              Baa     0.0000     0.000     0.000     0.000  1.0000  0.0000  0.0000
     7 H(1)   Bbb     0.0000     0.000     0.000     0.000 -0.0000  1.0000  0.0000
              Bcc     0.0000     0.000     0.000     0.000  0.0000  0.0000  1.0000
 

 ---------------------------------------------------------------------------------

 1\1\GINC-NODE31\SP\UB3LYP\6-31+G(d)\C2H4O1\YANZ\12-Oct-2023\0\\# ub3ly
 p/6-31+g(d)\\tmpdir/M3_ref_10.gjf\\0,1\H,0,-0.99835638,-2.40914399,-0.
 07674181\C,0,-1.0330974,-1.3184176,-0.02875126\C,0,-1.85834667,-0.6825
 524,-1.1348603\H,0,-0.0260796,-0.86720344,-0.05302296\H,0,-1.41477893,
 -0.93071278,0.93497418\O,0,-1.87094255,0.49574382,-1.12078459\H,0,-2.4
 0082691,-1.28897047,-1.85186107\\Version=ES64L-G16RevA.03\State=1-A\HF
 =-153.829633\S2=0.\S2-1=0.\S2A=0.\RMSD=2.003e-09\Dipole=0.1179564,-0.9
 695201,0.1413513\Quadrupole=0.7713711,-1.6246625,0.8532914,0.7783962,0
 .0588527,1.0422253\PG=C01 [X(C2H4O1)]\\@


 NATURE REVEALS EVERY SECRET ONCE.
                    - RALPH WALDO EMERSON
 Job cpu time:       0 days  0 hours  0 minutes 24.2 seconds.
 Elapsed time:       0 days  0 hours  0 minutes  6.3 seconds.
 File lengths (MBytes):  RWF=      6 Int=      0 D2E=      0 Chk=      1 Scr=      1
 Normal termination of Gaussian 16 at Thu Oct 12 15:23:42 2023.
