 Entering Gaussian System, Link 0=g16
 Initial command:
 /share/apps/gaussian/g16/l1.exe "/tmp/58287.mgr/Gau-20433.inp" -scrdir="/tmp/58287.mgr/"
 Entering Link 1 = /share/apps/gaussian/g16/l1.exe PID=     20438.
  
 Copyright (c) 1988,1990,1992,1993,1995,1998,2003,2009,2016,
            Gaussian, Inc.  All Rights Reserved.
  
 This is part of the Gaussian(R) 16 program.  It is based on
 the Gaussian(R) 09 system (copyright 2009, Gaussian, Inc.),
 the Gaussian(R) 03 system (copyright 2003, Gaussian, Inc.),
 the Gaussian(R) 98 system (copyright 1998, Gaussian, Inc.),
 the Gaussian(R) 94 system (copyright 1995, Gaussian, Inc.),
 the Gaussian 92(TM) system (copyright 1992, Gaussian, Inc.),
 the Gaussian 90(TM) system (copyright 1990, Gaussian, Inc.),
 the Gaussian 88(TM) system (copyright 1988, Gaussian, Inc.),
 the Gaussian 86(TM) system (copyright 1986, Carnegie Mellon
 University), and the Gaussian 82(TM) system (copyright 1983,
 Carnegie Mellon University). Gaussian is a federally registered
 trademark of Gaussian, Inc.
  
 This software contains proprietary and confidential information,
 including trade secrets, belonging to Gaussian, Inc.
  
 This software is provided under written license and may be
 used, copied, transmitted, or stored only in accord with that
 written license.
  
 The following legend is applicable only to US Government
 contracts under FAR:
  
                    RESTRICTED RIGHTS LEGEND
  
 Use, reproduction and disclosure by the US Government is
 subject to restrictions as set forth in subparagraphs (a)
 and (c) of the Commercial Computer Software - Restricted
 Rights clause in FAR 52.227-19.
  
 Gaussian, Inc.
 340 Quinnipiac St., Bldg. 40, Wallingford CT 06492
  
  
 ---------------------------------------------------------------
 Warning -- This program may not be used in any manner that
 competes with the business of Gaussian, Inc. or will provide
 assistance to any competitor of Gaussian, Inc.  The licensee
 of this program is prohibited from giving any competitor of
 Gaussian, Inc. access to this program.  By using this program,
 the user acknowledges that Gaussian, Inc. is engaged in the
 business of creating and licensing software in the field of
 computational chemistry and represents and warrants to the
 licensee that it is not a competitor of Gaussian, Inc. and that
 it will not use this program in any manner prohibited above.
 ---------------------------------------------------------------
  

 Cite this work as:
 Gaussian 16, Revision A.03,
 M. J. Frisch, G. W. Trucks, H. B. Schlegel, G. E. Scuseria, 
 M. A. Robb, J. R. Cheeseman, G. Scalmani, V. Barone, 
 G. A. Petersson, H. Nakatsuji, X. Li, M. Caricato, A. V. Marenich, 
 J. Bloino, B. G. Janesko, R. Gomperts, B. Mennucci, H. P. Hratchian, 
 J. V. Ortiz, A. F. Izmaylov, J. L. Sonnenberg, D. Williams-Young, 
 F. Ding, F. Lipparini, F. Egidi, J. Goings, B. Peng, A. Petrone, 
 T. Henderson, D. Ranasinghe, V. G. Zakrzewski, J. Gao, N. Rega, 
 G. Zheng, W. Liang, M. Hada, M. Ehara, K. Toyota, R. Fukuda, 
 J. Hasegawa, M. Ishida, T. Nakajima, Y. Honda, O. Kitao, H. Nakai, 
 T. Vreven, K. Throssell, J. A. Montgomery, Jr., J. E. Peralta, 
 F. Ogliaro, M. J. Bearpark, J. J. Heyd, E. N. Brothers, K. N. Kudin, 
 V. N. Staroverov, T. A. Keith, R. Kobayashi, J. Normand, 
 K. Raghavachari, A. P. Rendell, J. C. Burant, S. S. Iyengar, 
 J. Tomasi, M. Cossi, J. M. Millam, M. Klene, C. Adamo, R. Cammi, 
 J. W. Ochterski, R. L. Martin, K. Morokuma, O. Farkas, 
 J. B. Foresman, and D. J. Fox, Gaussian, Inc., Wallingford CT, 2016.
 
 ******************************************
 Gaussian 16:  ES64L-G16RevA.03 25-Dec-2016
                12-Oct-2023 
 ******************************************
 %nprocshared=4
 Will use up to    4 processors via shared memory.
 %mem=4GB
 ------------------
 # ub3lyp/6-31+g(d)
 ------------------
 1/38=1,172=1/1;
 2/12=2,17=6,18=5,40=1/2;
 3/5=1,6=6,7=11,11=2,25=1,30=1,74=-5,116=2/1,2,3;
 4//1;
 5/5=2,38=5/2;
 6/7=2,8=2,9=2,10=2,28=1/1;
 99/5=1,9=1/99;
 -------------------
 tmpdir/M3_ref_9.gjf
 -------------------
 Symbolic Z-matrix:
 Charge =  0 Multiplicity = 2
 C                    -1.56036  -0.78283   1.30257 
 C                    -1.0331   -1.31842  -0.02875 
 C                    -1.85835  -0.68255  -1.13486 
 H                    -1.73679   0.27898   1.24464 
 H                    -1.10669  -1.20451   2.20001 
 H                    -0.02608  -0.8672   -0.05302 
 H                    -0.99836  -2.40914  -0.07674 
 O                    -1.87094   0.49574  -1.12078 
 H                    -2.40083  -1.28897  -1.85186 
 
                          Input orientation:                          
 ---------------------------------------------------------------------
 Center     Atomic      Atomic             Coordinates (Angstroms)
 Number     Number       Type             X           Y           Z
 ---------------------------------------------------------------------
      1          6           0       -1.560365   -0.782829    1.302571
      2          6           0       -1.033097   -1.318418   -0.028751
      3          6           0       -1.858347   -0.682552   -1.134860
      4          1           0       -1.736791    0.278977    1.244636
      5          1           0       -1.106686   -1.204513    2.200013
      6          1           0       -0.026080   -0.867203   -0.053023
      7          1           0       -0.998356   -2.409144   -0.076742
      8          8           0       -1.870943    0.495744   -1.120785
      9          1           0       -2.400827   -1.288970   -1.851861
 ---------------------------------------------------------------------
                    Distance matrix (angstroms):
                    1          2          3          4          5
     1  C    0.000000
     2  C    1.528818   0.000000
     3  C    2.457625   1.519486   0.000000
     4  H    1.077922   2.160641   2.569303   0.000000
     5  H    1.090433   2.232886   3.458152   1.873638   0.000000
     6  H    2.049094   1.103752   2.135807   2.433964   2.521440
     7  H    2.205279   1.092334   2.200072   3.085016   2.578078
     8  O    2.757510   2.277214   1.178448   2.379117   3.808235
     9  H    3.303482   2.279316   1.084490   3.533794   4.254365
                    6          7          8          9
     6  H    0.000000
     7  H    1.823037   0.000000
     8  O    2.530071   3.207773   0.000000
     9  H    3.008842   2.524433   2.000114   0.000000
 Stoichiometry    C3H5O(2)
 Framework group  C1[X(C3H5O)]
 Deg. of freedom    21
 Full point group                 C1      NOp   1
 Largest Abelian subgroup         C1      NOp   1
 Largest concise Abelian subgroup C1      NOp   1
                         Standard orientation:                         
 ---------------------------------------------------------------------
 Center     Atomic      Atomic             Coordinates (Angstroms)
 Number     Number       Type             X           Y           Z
 ---------------------------------------------------------------------
      1          6           0        1.418469   -0.521769   -0.239403
      2          6           0        0.578378    0.670670    0.218441
      3          6           0       -0.852584    0.417402   -0.225453
      4          1           0        0.904031   -1.448931   -0.045397
      5          1           0        2.490056   -0.451425   -0.050203
      6          1           0        0.621222    0.549651    1.314702
      7          1           0        0.976230    1.634631   -0.106655
      8          8           0       -1.309819   -0.600609    0.153134
      9          1           0       -1.378563    1.123122   -0.859033
 ---------------------------------------------------------------------
 Rotational constants (GHZ):          18.2370781           6.3772807           5.1798076
 Standard basis: 6-31+G(d) (6D, 7F)
 There are    86 symmetry adapted cartesian basis functions of A   symmetry.
 There are    86 symmetry adapted basis functions of A   symmetry.
    86 basis functions,   148 primitive gaussians,    86 cartesian basis functions
    16 alpha electrons       15 beta electrons
       nuclear repulsion energy       112.5933745212 Hartrees.
 NAtoms=    9 NActive=    9 NUniq=    9 SFac= 1.00D+00 NAtFMM=   60 NAOKFM=F Big=F
 Integral buffers will be    131072 words long.
 Raffenetti 2 integral format.
 Two-electron integral symmetry is turned on.
 One-electron integrals computed using PRISM.
 NBasis=    86 RedAO= T EigKep=  2.02D-04  NBF=    86
 NBsUse=    86 1.00D-06 EigRej= -1.00D+00 NBFU=    86
 ExpMin= 4.38D-02 ExpMax= 5.48D+03 ExpMxC= 8.25D+02 IAcc=3 IRadAn=         5 AccDes= 0.00D+00
 Harris functional with IExCor=  402 and IRadAn=       5 diagonalized for initial guess.
 HarFok:  IExCor=  402 AccDes= 0.00D+00 IRadAn=         5 IDoV= 1 UseB2=F ITyADJ=14
 ICtDFT=  3500011 ScaDFX=  1.000000  1.000000  1.000000  1.000000
 FoFCou: FMM=F IPFlag=           0 FMFlag=      100000 FMFlg1=           0
         NFxFlg=           0 DoJE=T BraDBF=F KetDBF=T FulRan=T
         wScrn=  0.000000 ICntrl=       500 IOpCl=  0 I1Cent=   200000004 NGrid=           0
         NMat0=    1 NMatS0=      1 NMatT0=    0 NMatD0=    1 NMtDS0=    0 NMtDT0=    0
 Petite list used in FoFCou.
 Initial guess <Sx>= 0.0000 <Sy>= 0.0000 <Sz>= 0.5000 <S**2>= 0.7500 S= 0.5000
 Keep R1 and R2 ints in memory in canonical form, NReq=17634651.
 Requested convergence on RMS density matrix=1.00D-08 within 128 cycles.
 Requested convergence on MAX density matrix=1.00D-06.
 Requested convergence on             energy=1.00D-06.
 No special actions if energy rises.
 SCF Done:  E(UB3LYP) =  -192.466777605     A.U. after   15 cycles
            NFock= 15  Conv=0.37D-08     -V/T= 2.0085
 <Sx>= 0.0000 <Sy>= 0.0000 <Sz>= 0.5000 <S**2>= 0.7533 S= 0.5016
 <L.S>= 0.000000000000E+00
 Annihilation of the first spin contaminant:
 S**2 before annihilation     0.7533,   after     0.7500

 **********************************************************************

            Population analysis using the SCF density.

 **********************************************************************

 Orbital symmetries:
 Alpha Orbitals:
       Occupied  (A) (A) (A) (A) (A) (A) (A) (A) (A) (A) (A) (A)
                 (A) (A) (A) (A)
       Virtual   (A) (A) (A) (A) (A) (A) (A) (A) (A) (A) (A) (A)
                 (A) (A) (A) (A) (A) (A) (A) (A) (A) (A) (A) (A)
                 (A) (A) (A) (A) (A) (A) (A) (A) (A) (A) (A) (A)
                 (A) (A) (A) (A) (A) (A) (A) (A) (A) (A) (A) (A)
                 (A) (A) (A) (A) (A) (A) (A) (A) (A) (A) (A) (A)
                 (A) (A) (A) (A) (A) (A) (A) (A) (A) (A)
 Beta  Orbitals:
       Occupied  (A) (A) (A) (A) (A) (A) (A) (A) (A) (A) (A) (A)
                 (A) (A) (A)
       Virtual   (A) (A) (A) (A) (A) (A) (A) (A) (A) (A) (A) (A)
                 (A) (A) (A) (A) (A) (A) (A) (A) (A) (A) (A) (A)
                 (A) (A) (A) (A) (A) (A) (A) (A) (A) (A) (A) (A)
                 (A) (A) (A) (A) (A) (A) (A) (A) (A) (A) (A) (A)
                 (A) (A) (A) (A) (A) (A) (A) (A) (A) (A) (A) (A)
                 (A) (A) (A) (A) (A) (A) (A) (A) (A) (A) (A)
 The electronic state is 2-A.
 Alpha  occ. eigenvalues --  -19.16686 -10.28856 -10.21188 -10.21001  -1.08550
 Alpha  occ. eigenvalues --   -0.79133  -0.65933  -0.58232  -0.51058  -0.46638
 Alpha  occ. eigenvalues --   -0.44807  -0.42604  -0.38878  -0.37472  -0.27318
 Alpha  occ. eigenvalues --   -0.22702
 Alpha virt. eigenvalues --   -0.04420   0.01151   0.02448   0.03526   0.04393
 Alpha virt. eigenvalues --    0.06844   0.07468   0.08311   0.09127   0.09206
 Alpha virt. eigenvalues --    0.11626   0.12873   0.15983   0.19308   0.20794
 Alpha virt. eigenvalues --    0.21433   0.23909   0.24682   0.25316   0.26064
 Alpha virt. eigenvalues --    0.27479   0.29802   0.33214   0.36396   0.42524
 Alpha virt. eigenvalues --    0.62792   0.64146   0.65382   0.66305   0.67627
 Alpha virt. eigenvalues --    0.72382   0.74328   0.80591   0.82674   0.93200
 Alpha virt. eigenvalues --    0.95403   0.98814   1.00057   1.04545   1.07075
 Alpha virt. eigenvalues --    1.11253   1.20832   1.23213   1.26054   1.37122
 Alpha virt. eigenvalues --    1.43113   1.53062   1.53949   1.62134   1.70453
 Alpha virt. eigenvalues --    1.79637   1.83363   1.89473   1.94589   1.99838
 Alpha virt. eigenvalues --    2.08913   2.14235   2.17577   2.25315   2.35634
 Alpha virt. eigenvalues --    2.43553   2.50534   2.61060   2.70437   2.88079
 Alpha virt. eigenvalues --    3.07079   4.11782   4.16122   4.24854   4.46434
  Beta  occ. eigenvalues --  -19.16689 -10.28832 -10.21034 -10.19797  -1.08547
  Beta  occ. eigenvalues --   -0.77958  -0.64180  -0.57250  -0.50821  -0.46179
  Beta  occ. eigenvalues --   -0.44303  -0.41925  -0.38251  -0.36809  -0.27025
  Beta virt. eigenvalues --   -0.07360  -0.04232   0.01246   0.02545   0.03692
  Beta virt. eigenvalues --    0.04430   0.06934   0.07664   0.08401   0.09306
  Beta virt. eigenvalues --    0.10440   0.11786   0.12951   0.16257   0.19547
  Beta virt. eigenvalues --    0.20912   0.22294   0.24453   0.25028   0.25741
  Beta virt. eigenvalues --    0.26764   0.27832   0.29917   0.33572   0.36567
  Beta virt. eigenvalues --    0.42678   0.63811   0.64642   0.65912   0.67982
  Beta virt. eigenvalues --    0.70634   0.73514   0.75134   0.81117   0.83182
  Beta virt. eigenvalues --    0.93388   0.96689   0.99230   1.01195   1.05469
  Beta virt. eigenvalues --    1.07864   1.11913   1.20888   1.23260   1.26377
  Beta virt. eigenvalues --    1.37470   1.44379   1.53704   1.54740   1.63455
  Beta virt. eigenvalues --    1.72254   1.79949   1.84439   1.92016   1.95341
  Beta virt. eigenvalues --    2.03044   2.09940   2.15556   2.21085   2.26272
  Beta virt. eigenvalues --    2.36151   2.44366   2.51411   2.61134   2.71220
  Beta virt. eigenvalues --    2.88156   3.07098   4.13451   4.16633   4.25875
  Beta virt. eigenvalues --    4.46833
          Condensed to atoms (all electrons):
               1          2          3          4          5          6
     1  C    5.520206   0.186820  -0.025398   0.400308   0.379352  -0.059536
     2  C    0.186820   5.745311   0.188614  -0.062274  -0.068093   0.402466
     3  C   -0.025398   0.188614   4.882652  -0.016698   0.022845  -0.036785
     4  H    0.400308  -0.062274  -0.016698   0.477170  -0.028228  -0.001718
     5  H    0.379352  -0.068093   0.022845  -0.028228   0.510320  -0.000865
     6  H   -0.059536   0.402466  -0.036785  -0.001718  -0.000865   0.493817
     7  H   -0.037558   0.357777  -0.031422   0.004001  -0.002876  -0.028550
     8  O   -0.026661  -0.129302   0.442835   0.009087   0.000104  -0.012687
     9  H    0.011299  -0.120559   0.384842   0.000325  -0.000122   0.002204
               7          8          9
     1  C   -0.037558  -0.026661   0.011299
     2  C    0.357777  -0.129302  -0.120559
     3  C   -0.031422   0.442835   0.384842
     4  H    0.004001   0.009087   0.000325
     5  H   -0.002876   0.000104  -0.000122
     6  H   -0.028550  -0.012687   0.002204
     7  H    0.526490   0.009256   0.004997
     8  O    0.009256   8.116679  -0.059046
     9  H    0.004997  -0.059046   0.609845
          Atomic-Atomic Spin Densities.
               1          2          3          4          5          6
     1  C    1.270041  -0.102647  -0.007003  -0.005024  -0.000935  -0.056674
     2  C   -0.102647  -0.010449   0.012124  -0.005054  -0.007593   0.039826
     3  C   -0.007003   0.012124   0.003705  -0.001591  -0.002532   0.002428
     4  H   -0.005024  -0.005054  -0.001591  -0.033331   0.002329  -0.001254
     5  H   -0.000935  -0.007593  -0.002532   0.002329  -0.032593  -0.001594
     6  H   -0.056674   0.039826   0.002428  -0.001254  -0.001594   0.079245
     7  H   -0.000622  -0.003322   0.003216   0.000115   0.001075  -0.008391
     8  O   -0.000573  -0.003470  -0.000830   0.001396   0.000208  -0.003380
     9  H    0.000305   0.001501  -0.000376  -0.000048  -0.000009   0.000867
               7          8          9
     1  C   -0.000622  -0.000573   0.000305
     2  C   -0.003322  -0.003470   0.001501
     3  C    0.003216  -0.000830  -0.000376
     4  H    0.000115   0.001396  -0.000048
     5  H    0.001075   0.000208  -0.000009
     6  H   -0.008391  -0.003380   0.000867
     7  H    0.015682   0.000700  -0.000895
     8  O    0.000700   0.006065  -0.003936
     9  H   -0.000895  -0.003936   0.004953
 Mulliken charges and spin densities:
               1          2
     1  C   -0.348832   1.096869
     2  C   -0.500760  -0.079083
     3  C    0.188516   0.009142
     4  H    0.218027  -0.042462
     5  H    0.187563  -0.041643
     6  H    0.241653   0.051074
     7  H    0.197884   0.007557
     8  O   -0.350266  -0.003819
     9  H    0.166216   0.002364
 Sum of Mulliken charges =  -0.00000   1.00000
 Mulliken charges and spin densities with hydrogens summed into heavy atoms:
               1          2
     1  C    0.056757   1.012764
     2  C   -0.061223  -0.020451
     3  C    0.354731   0.011506
     8  O   -0.350266  -0.003819
 Electronic spatial extent (au):  <R**2>=            274.0393
 Charge=             -0.0000 electrons
 Dipole moment (field-independent basis, Debye):
    X=              1.2140    Y=              2.0729    Z=              0.0377  Tot=              2.4025
 Quadrupole moment (field-independent basis, Debye-Ang):
   XX=            -26.5301   YY=            -24.7261   ZZ=            -25.1564
   XY=             -2.3899   XZ=              1.9931   YZ=             -0.4320
 Traceless Quadrupole moment (field-independent basis, Debye-Ang):
   XX=             -1.0593   YY=              0.7448   ZZ=              0.3145
   XY=             -2.3899   XZ=              1.9931   YZ=             -0.4320
 Octapole moment (field-independent basis, Debye-Ang**2):
  XXX=              0.3947  YYY=             -0.4646  ZZZ=              3.2315  XYY=             -1.3241
  XXY=              4.1519  XXZ=              0.7918  XZZ=             -4.1321  YZZ=              0.8668
  YYZ=             -0.3992  XYZ=             -0.3827
 Hexadecapole moment (field-independent basis, Debye-Ang**3):
 XXXX=           -227.6113 YYYY=            -94.3370 ZZZZ=            -45.2514 XXXY=             -2.8122
 XXXZ=              4.4384 YYYX=              2.8322 YYYZ=             -2.3808 ZZZX=              3.9834
 ZZZY=             -1.6725 XXYY=            -55.9231 XXZZ=            -48.2771 YYZZ=            -24.8763
 XXYZ=             -1.6176 YYXZ=              0.7391 ZZXY=              1.6556
 N-N= 1.125933745212D+02 E-N=-6.735450892529D+02  KE= 1.908396907005D+02
                          Isotropic Fermi Contact Couplings
        Atom                 a.u.       MegaHertz       Gauss      10(-4) cm-1
     1  C(13)              0.18347     206.25366      73.59643      68.79882
     2  C(13)             -0.01402     -15.76311      -5.62467      -5.25801
     3  C(13)              0.00844       9.49012       3.38631       3.16556
     4  H(1)              -0.00930     -41.57966     -14.83666     -13.86948
     5  H(1)              -0.00932     -41.67062     -14.86911     -13.89982
     6  H(1)               0.02659     118.87374      42.41711      39.65201
     7  H(1)               0.00434      19.42111       6.92993       6.47818
     8  O(17)             -0.00058       0.35172       0.12550       0.11732
     9  H(1)               0.00041       1.81127       0.64631       0.60417
 --------------------------------------------------------
       Center         ----  Spin Dipole Couplings  ----
                      3XX-RR        3YY-RR        3ZZ-RR
 --------------------------------------------------------
     1   Atom       -0.508075     -0.500790      1.008865
     2   Atom       -0.018498     -0.005281      0.023778
     3   Atom        0.023163     -0.011529     -0.011634
     4   Atom       -0.031362      0.036971     -0.005609
     5   Atom        0.068533     -0.063108     -0.005426
     6   Atom       -0.007230     -0.000903      0.008132
     7   Atom       -0.009445      0.017437     -0.007992
     8   Atom        0.020511     -0.009842     -0.010670
     9   Atom        0.004533     -0.001242     -0.003291
 --------------------------------------------------------
                        XY            XZ            YZ
 --------------------------------------------------------
     1   Atom       -0.004025      0.048467     -0.098043
     2   Atom       -0.012641     -0.006894      0.016140
     3   Atom       -0.005050     -0.001486      0.002539
     4   Atom        0.058833     -0.003664     -0.015508
     5   Atom        0.010474      0.017104     -0.003295
     6   Atom       -0.009342     -0.006598      0.007918
     7   Atom       -0.003939     -0.000692      0.003891
     8   Atom        0.002436      0.017751     -0.012271
     9   Atom       -0.005179      0.001494     -0.000851
 --------------------------------------------------------


 ---------------------------------------------------------------------------------
              Anisotropic Spin Dipole Couplings in Principal Axis System
 ---------------------------------------------------------------------------------

       Atom             a.u.   MegaHertz   Gauss  10(-4) cm-1        Axes

              Baa    -0.5099   -68.425   -24.416   -22.824  0.9521  0.3057 -0.0107
     1 C(13)  Bbb    -0.5068   -68.014   -24.269   -22.687 -0.3042  0.9500  0.0712
              Bcc     1.0168   136.439    48.685    45.511  0.0319 -0.0645  0.9974
 
              Baa    -0.0263    -3.530    -1.260    -1.178  0.8336  0.5489 -0.0621
     2 C(13)  Bbb    -0.0073    -0.974    -0.347    -0.325 -0.5062  0.7140 -0.4838
              Bcc     0.0336     4.504     1.607     1.502 -0.2212  0.4347  0.8730
 
              Baa    -0.0143    -1.920    -0.685    -0.640  0.0737  0.7428 -0.6654
     3 C(13)  Bbb    -0.0097    -1.298    -0.463    -0.433  0.1342  0.6537  0.7447
              Bcc     0.0240     3.218     1.148     1.073  0.9882 -0.1442 -0.0515
 
              Baa    -0.0656   -34.994   -12.487   -11.673  0.8596 -0.5049 -0.0780
     4 H(1)   Bbb    -0.0082    -4.372    -1.560    -1.458  0.1622  0.1248  0.9788
              Bcc     0.0738    39.366    14.047    13.131  0.4845  0.8541 -0.1892
 
              Baa    -0.0643   -34.315   -12.244   -11.446 -0.0887  0.9927  0.0813
     5 H(1)   Bbb    -0.0087    -4.616    -1.647    -1.540 -0.2026 -0.0979  0.9743
              Bcc     0.0730    38.931    13.891    12.986  0.9752  0.0700  0.2098
 
              Baa    -0.0140    -7.450    -2.658    -2.485  0.8251  0.5632  0.0446
     6 H(1)   Bbb    -0.0034    -1.791    -0.639    -0.598  0.3966 -0.6336  0.6643
              Bcc     0.0173     9.241     3.298     3.083 -0.4024  0.5305  0.7461
 
              Baa    -0.0100    -5.347    -1.908    -1.784  0.9876  0.1290  0.0896
     7 H(1)   Bbb    -0.0086    -4.571    -1.631    -1.525 -0.0687 -0.1578  0.9851
              Bcc     0.0186     9.918     3.539     3.308 -0.1412  0.9790  0.1470
 
              Baa    -0.0273     1.974     0.704     0.659 -0.3103  0.5756  0.7566
     8 O(17)  Bbb    -0.0015     0.108     0.038     0.036  0.3076  0.8138 -0.4930
              Bcc     0.0288    -2.082    -0.743    -0.694  0.8995 -0.0798  0.4296
 
              Baa    -0.0043    -2.286    -0.816    -0.762  0.5101  0.8595 -0.0311
     9 H(1)   Bbb    -0.0036    -1.897    -0.677    -0.633 -0.1156  0.1044  0.9878
              Bcc     0.0078     4.183     1.493     1.395  0.8523 -0.5003  0.1526
 

 ---------------------------------------------------------------------------------

 1\1\GINC-NODE31\SP\UB3LYP\6-31+G(d)\C3H5O1(2)\YANZ\12-Oct-2023\0\\# ub
 3lyp/6-31+g(d)\\tmpdir/M3_ref_9.gjf\\0,2\C,0,-1.56036485,-0.78282937,1
 .30257086\C,0,-1.0330974,-1.3184176,-0.02875126\C,0,-1.85834667,-0.682
 5524,-1.1348603\H,0,-1.7367911,0.27897731,1.24463587\H,0,-1.10668637,-
 1.20451272,2.20001314\H,0,-0.0260796,-0.86720344,-0.05302296\H,0,-0.99
 835638,-2.40914399,-0.07674181\O,0,-1.87094255,0.49574382,-1.12078459\
 H,0,-2.40082691,-1.28897047,-1.85186107\\Version=ES64L-G16RevA.03\Stat
 e=2-A\HF=-192.4667776\S2=0.753286\S2-1=0.\S2A=0.750008\RMSD=3.717e-09\
 Dipole=0.335055,-0.8822391,0.0534605\Quadrupole=0.496507,-1.1041454,0.
 6076384,0.3728664,0.877891,2.029693\PG=C01 [X(C3H5O1)]\\@


 THE HURRIEDER I GO, THE BEHINDER I GET.
 Job cpu time:       0 days  0 hours  0 minutes 59.5 seconds.
 Elapsed time:       0 days  0 hours  0 minutes 15.6 seconds.
 File lengths (MBytes):  RWF=     10 Int=      0 D2E=      0 Chk=      2 Scr=      1
 Normal termination of Gaussian 16 at Thu Oct 12 15:23:36 2023.
