 Entering Gaussian System, Link 0=g16
 Initial command:
 /share/apps/gaussian/g16/l1.exe "/tmp/58287.mgr/Gau-21093.inp" -scrdir="/tmp/58287.mgr/"
 Entering Link 1 = /share/apps/gaussian/g16/l1.exe PID=     21094.
  
 Copyright (c) 1988,1990,1992,1993,1995,1998,2003,2009,2016,
            Gaussian, Inc.  All Rights Reserved.
  
 This is part of the Gaussian(R) 16 program.  It is based on
 the Gaussian(R) 09 system (copyright 2009, Gaussian, Inc.),
 the Gaussian(R) 03 system (copyright 2003, Gaussian, Inc.),
 the Gaussian(R) 98 system (copyright 1998, Gaussian, Inc.),
 the Gaussian(R) 94 system (copyright 1995, Gaussian, Inc.),
 the Gaussian 92(TM) system (copyright 1992, Gaussian, Inc.),
 the Gaussian 90(TM) system (copyright 1990, Gaussian, Inc.),
 the Gaussian 88(TM) system (copyright 1988, Gaussian, Inc.),
 the Gaussian 86(TM) system (copyright 1986, Carnegie Mellon
 University), and the Gaussian 82(TM) system (copyright 1983,
 Carnegie Mellon University). Gaussian is a federally registered
 trademark of Gaussian, Inc.
  
 This software contains proprietary and confidential information,
 including trade secrets, belonging to Gaussian, Inc.
  
 This software is provided under written license and may be
 used, copied, transmitted, or stored only in accord with that
 written license.
  
 The following legend is applicable only to US Government
 contracts under FAR:
  
                    RESTRICTED RIGHTS LEGEND
  
 Use, reproduction and disclosure by the US Government is
 subject to restrictions as set forth in subparagraphs (a)
 and (c) of the Commercial Computer Software - Restricted
 Rights clause in FAR 52.227-19.
  
 Gaussian, Inc.
 340 Quinnipiac St., Bldg. 40, Wallingford CT 06492
  
  
 ---------------------------------------------------------------
 Warning -- This program may not be used in any manner that
 competes with the business of Gaussian, Inc. or will provide
 assistance to any competitor of Gaussian, Inc.  The licensee
 of this program is prohibited from giving any competitor of
 Gaussian, Inc. access to this program.  By using this program,
 the user acknowledges that Gaussian, Inc. is engaged in the
 business of creating and licensing software in the field of
 computational chemistry and represents and warrants to the
 licensee that it is not a competitor of Gaussian, Inc. and that
 it will not use this program in any manner prohibited above.
 ---------------------------------------------------------------
  

 Cite this work as:
 Gaussian 16, Revision A.03,
 M. J. Frisch, G. W. Trucks, H. B. Schlegel, G. E. Scuseria, 
 M. A. Robb, J. R. Cheeseman, G. Scalmani, V. Barone, 
 G. A. Petersson, H. Nakatsuji, X. Li, M. Caricato, A. V. Marenich, 
 J. Bloino, B. G. Janesko, R. Gomperts, B. Mennucci, H. P. Hratchian, 
 J. V. Ortiz, A. F. Izmaylov, J. L. Sonnenberg, D. Williams-Young, 
 F. Ding, F. Lipparini, F. Egidi, J. Goings, B. Peng, A. Petrone, 
 T. Henderson, D. Ranasinghe, V. G. Zakrzewski, J. Gao, N. Rega, 
 G. Zheng, W. Liang, M. Hada, M. Ehara, K. Toyota, R. Fukuda, 
 J. Hasegawa, M. Ishida, T. Nakajima, Y. Honda, O. Kitao, H. Nakai, 
 T. Vreven, K. Throssell, J. A. Montgomery, Jr., J. E. Peralta, 
 F. Ogliaro, M. J. Bearpark, J. J. Heyd, E. N. Brothers, K. N. Kudin, 
 V. N. Staroverov, T. A. Keith, R. Kobayashi, J. Normand, 
 K. Raghavachari, A. P. Rendell, J. C. Burant, S. S. Iyengar, 
 J. Tomasi, M. Cossi, J. M. Millam, M. Klene, C. Adamo, R. Cammi, 
 J. W. Ochterski, R. L. Martin, K. Morokuma, O. Farkas, 
 J. B. Foresman, and D. J. Fox, Gaussian, Inc., Wallingford CT, 2016.
 
 ******************************************
 Gaussian 16:  ES64L-G16RevA.03 25-Dec-2016
                12-Oct-2023 
 ******************************************
 %nprocshared=4
 Will use up to    4 processors via shared memory.
 %mem=4GB
 ------------------
 # ub3lyp/6-31+g(d)
 ------------------
 1/38=1,172=1/1;
 2/12=2,17=6,18=5,40=1/2;
 3/5=1,6=6,7=11,11=2,25=1,30=1,74=-5,116=2/1,2,3;
 4//1;
 5/5=2,38=5/2;
 6/7=2,8=2,9=2,10=2,28=1/1;
 99/5=1,9=1/99;
 --------------------
 tmpdir/M3_ref_22.gjf
 --------------------
 Symbolic Z-matrix:
 Charge =  0 Multiplicity = 3
 C                    -1.07241   1.28244   0.02074 
 C                    -1.80409   0.68399   1.22254 
 C                    -1.56036  -0.78283   1.30257 
 H                    -0.05694   0.86562  -0.0065 
 H                    -1.08735   2.3742    0.0001 
 H                    -1.65168   0.8275   -0.80422 
 H                    -2.80968   1.06898   1.39914 
 H                    -1.17868  -1.17053   0.33885 
 H                    -1.10669  -1.20451   2.20001 
 
                          Input orientation:                          
 ---------------------------------------------------------------------
 Center     Atomic      Atomic             Coordinates (Angstroms)
 Number     Number       Type             X           Y           Z
 ---------------------------------------------------------------------
      1          6           0       -1.072408    1.282439    0.020744
      2          6           0       -1.804086    0.683985    1.222538
      3          6           0       -1.560365   -0.782829    1.302571
      4          1           0       -0.056939    0.865624   -0.006502
      5          1           0       -1.087345    2.374200    0.000102
      6          1           0       -1.651680    0.827496   -0.804224
      7          1           0       -2.809675    1.068982    1.399139
      8          1           0       -1.178683   -1.170534    0.338845
      9          1           0       -1.106686   -1.204513    2.200013
 ---------------------------------------------------------------------
                    Distance matrix (angstroms):
                    1          2          3          4          5
     1  C    0.000000
     2  C    1.528989   0.000000
     3  C    2.479217   1.489077   0.000000
     4  H    1.098024   2.143841   2.586767   0.000000
     5  H    1.092058   2.205650   3.447754   1.826905   0.000000
     6  H    1.105939   2.037544   2.653314   1.783540   1.832405
     7  H    2.227921   1.091156   2.235913   3.097538   2.574357
     8  H    2.475795   2.147390   1.106690   2.350217   3.562054
     9  H    3.306860   2.237912   1.090433   3.202522   4.200853
                    6          7          8          9
     6  H    0.000000
     7  H    2.500815   0.000000
     8  H    2.349992   2.966444   0.000000
     9  H    3.667632   2.951330   1.862870   0.000000
 Stoichiometry    C3H6(3)
 Framework group  C1[X(C3H6)]
 Deg. of freedom    21
 Full point group                 C1      NOp   1
 Largest Abelian subgroup         C1      NOp   1
 Largest concise Abelian subgroup C1      NOp   1
                         Standard orientation:                         
 ---------------------------------------------------------------------
 Center     Atomic      Atomic             Coordinates (Angstroms)
 Number     Number       Type             X           Y           Z
 ---------------------------------------------------------------------
      1          6           0       -1.178832   -0.241948   -0.039075
      2          6           0        0.072404    0.635700   -0.083235
      3          6           0        1.297369   -0.196164    0.074286
      4          1           0       -1.000443   -1.127355   -0.663484
      5          1           0       -2.094889    0.290472   -0.303572
      6          1           0       -1.154911   -0.559269    1.020093
      7          1           0       -0.001078    1.584928    0.449858
      8          1           0        1.045963   -1.190291    0.490542
      9          1           0        2.059705   -0.184014   -0.705291
 ---------------------------------------------------------------------
 Rotational constants (GHZ):          35.2546175           9.7657375           8.3199261
 Standard basis: 6-31+G(d) (6D, 7F)
 There are    69 symmetry adapted cartesian basis functions of A   symmetry.
 There are    69 symmetry adapted basis functions of A   symmetry.
    69 basis functions,   120 primitive gaussians,    69 cartesian basis functions
    13 alpha electrons       11 beta electrons
       nuclear repulsion energy        69.2455332886 Hartrees.
 NAtoms=    9 NActive=    9 NUniq=    9 SFac= 1.00D+00 NAtFMM=   60 NAOKFM=F Big=F
 Integral buffers will be    131072 words long.
 Raffenetti 2 integral format.
 Two-electron integral symmetry is turned on.
 One-electron integrals computed using PRISM.
 NBasis=    69 RedAO= T EigKep=  2.81D-04  NBF=    69
 NBsUse=    69 1.00D-06 EigRej= -1.00D+00 NBFU=    69
 ExpMin= 4.38D-02 ExpMax= 3.05D+03 ExpMxC= 4.57D+02 IAcc=3 IRadAn=         5 AccDes= 0.00D+00
 Harris functional with IExCor=  402 and IRadAn=       5 diagonalized for initial guess.
 HarFok:  IExCor=  402 AccDes= 0.00D+00 IRadAn=         5 IDoV= 1 UseB2=F ITyADJ=14
 ICtDFT=  3500011 ScaDFX=  1.000000  1.000000  1.000000  1.000000
 FoFCou: FMM=F IPFlag=           0 FMFlag=      100000 FMFlg1=           0
         NFxFlg=           0 DoJE=T BraDBF=F KetDBF=T FulRan=T
         wScrn=  0.000000 ICntrl=       500 IOpCl=  0 I1Cent=   200000004 NGrid=           0
         NMat0=    1 NMatS0=      1 NMatT0=    0 NMatD0=    1 NMtDS0=    0 NMtDT0=    0
 Petite list used in FoFCou.
 Initial guess <Sx>= 0.0000 <Sy>= 0.0000 <Sz>= 1.0000 <S**2>= 2.0000 S= 1.0000
 Keep R1 and R2 ints in memory in canonical form, NReq=9403921.
 Requested convergence on RMS density matrix=1.00D-08 within 128 cycles.
 Requested convergence on MAX density matrix=1.00D-06.
 Requested convergence on             energy=1.00D-06.
 No special actions if energy rises.
 SCF Done:  E(UB3LYP) =  -117.791050434     A.U. after   13 cycles
            NFock= 13  Conv=0.59D-08     -V/T= 2.0105
 <Sx>= 0.0000 <Sy>= 0.0000 <Sz>= 1.0000 <S**2>= 2.0041 S= 1.0014
 <L.S>= 0.000000000000E+00
 Annihilation of the first spin contaminant:
 S**2 before annihilation     2.0041,   after     2.0000

 **********************************************************************

            Population analysis using the SCF density.

 **********************************************************************

 Orbital symmetries:
 Alpha Orbitals:
       Occupied  (A) (A) (A) (A) (A) (A) (A) (A) (A) (A) (A) (A)
                 (A)
       Virtual   (A) (A) (A) (A) (A) (A) (A) (A) (A) (A) (A) (A)
                 (A) (A) (A) (A) (A) (A) (A) (A) (A) (A) (A) (A)
                 (A) (A) (A) (A) (A) (A) (A) (A) (A) (A) (A) (A)
                 (A) (A) (A) (A) (A) (A) (A) (A) (A) (A) (A) (A)
                 (A) (A) (A) (A) (A) (A) (A) (A)
 Beta  Orbitals:
       Occupied  (A) (A) (A) (A) (A) (A) (A) (A) (A) (A) (A)
       Virtual   (A) (A) (A) (A) (A) (A) (A) (A) (A) (A) (A) (A)
                 (A) (A) (A) (A) (A) (A) (A) (A) (A) (A) (A) (A)
                 (A) (A) (A) (A) (A) (A) (A) (A) (A) (A) (A) (A)
                 (A) (A) (A) (A) (A) (A) (A) (A) (A) (A) (A) (A)
                 (A) (A) (A) (A) (A) (A) (A) (A) (A) (A)
 The electronic state is 3-A.
 Alpha  occ. eigenvalues --  -10.20781 -10.20726 -10.19531  -0.79652  -0.68362
 Alpha  occ. eigenvalues --   -0.57685  -0.46348  -0.44028  -0.40794  -0.38246
 Alpha  occ. eigenvalues --   -0.37183  -0.25856  -0.17868
 Alpha virt. eigenvalues --    0.01621   0.03160   0.03586   0.05022   0.06635
 Alpha virt. eigenvalues --    0.07904   0.08516   0.09247   0.09619   0.11857
 Alpha virt. eigenvalues --    0.13388   0.15697   0.17877   0.21324   0.22596
 Alpha virt. eigenvalues --    0.23417   0.27121   0.27865   0.29688   0.32488
 Alpha virt. eigenvalues --    0.61912   0.63210   0.64659   0.66930   0.68191
 Alpha virt. eigenvalues --    0.68651   0.71912   0.74712   0.78752   0.91262
 Alpha virt. eigenvalues --    0.92718   0.97129   0.97825   0.99527   1.03262
 Alpha virt. eigenvalues --    1.08841   1.15233   1.28050   1.41016   1.50007
 Alpha virt. eigenvalues --    1.78671   1.79841   1.87572   1.90306   1.96464
 Alpha virt. eigenvalues --    2.07286   2.18190   2.23101   2.26442   2.37375
 Alpha virt. eigenvalues --    2.41953   2.58344   2.70565   4.10795   4.21912
 Alpha virt. eigenvalues --    4.38856
  Beta  occ. eigenvalues --  -10.19490 -10.19434 -10.19377  -0.76972  -0.65931
  Beta  occ. eigenvalues --   -0.54883  -0.45070  -0.42169  -0.39589  -0.36718
  Beta  occ. eigenvalues --   -0.35918
  Beta virt. eigenvalues --   -0.10374  -0.02803   0.01891   0.03404   0.03914
  Beta virt. eigenvalues --    0.05333   0.06933   0.07913   0.08917   0.09805
  Beta virt. eigenvalues --    0.11092   0.12271   0.14161   0.16102   0.18547
  Beta virt. eigenvalues --    0.22461   0.23777   0.24756   0.28078   0.29517
  Beta virt. eigenvalues --    0.31656   0.33707   0.62833   0.64205   0.66148
  Beta virt. eigenvalues --    0.69589   0.71450   0.72112   0.74188   0.77390
  Beta virt. eigenvalues --    0.80667   0.92579   0.93738   0.97843   0.99202
  Beta virt. eigenvalues --    1.01453   1.04398   1.09407   1.18064   1.29569
  Beta virt. eigenvalues --    1.44390   1.53908   1.80560   1.83422   1.93090
  Beta virt. eigenvalues --    1.95133   1.99368   2.11620   2.21170   2.25469
  Beta virt. eigenvalues --    2.27443   2.41692   2.44401   2.60755   2.72611
  Beta virt. eigenvalues --    4.13775   4.23706   4.41337
          Condensed to atoms (all electrons):
               1          2          3          4          5          6
     1  C    5.497055   0.168709  -0.024711   0.401388   0.391063   0.403516
     2  C    0.168709   5.652596   0.130336  -0.092142  -0.060436  -0.050204
     3  C   -0.024711   0.130336   5.576145   0.023412   0.014590  -0.037657
     4  H    0.401388  -0.092142   0.023412   0.508187  -0.020643  -0.035209
     5  H    0.391063  -0.060436   0.014590  -0.020643   0.493876  -0.025680
     6  H    0.403516  -0.050204  -0.037657  -0.035209  -0.025680   0.532347
     7  H   -0.045677   0.350884  -0.027688   0.004290  -0.001375  -0.004055
     8  H    0.020657  -0.080677   0.378537  -0.001338   0.000247   0.002730
     9  H   -0.004056  -0.054448   0.391080   0.000642  -0.000125  -0.000075
               7          8          9
     1  C   -0.045677   0.020657  -0.004056
     2  C    0.350884  -0.080677  -0.054448
     3  C   -0.027688   0.378537   0.391080
     4  H    0.004290  -0.001338   0.000642
     5  H   -0.001375   0.000247  -0.000125
     6  H   -0.004055   0.002730  -0.000075
     7  H    0.534390   0.002424   0.001796
     8  H    0.002424   0.529873  -0.033845
     9  H    0.001796  -0.033845   0.503013
          Atomic-Atomic Spin Densities.
               1          2          3          4          5          6
     1  C    0.031392  -0.071841  -0.018122  -0.003001  -0.001684   0.044452
     2  C   -0.071841   1.414236  -0.235610  -0.004308  -0.012546  -0.066034
     3  C   -0.018122  -0.235610   1.266457   0.006942   0.007838   0.003991
     4  H   -0.003001  -0.004308   0.006942   0.016458   0.003421  -0.009635
     5  H   -0.001684  -0.012546   0.007838   0.003421   0.017336  -0.006933
     6  H    0.044452  -0.066034   0.003991  -0.009635  -0.006933   0.085203
     7  H   -0.011366  -0.005930  -0.012831   0.000423   0.002840  -0.003086
     8  H    0.009562  -0.028922   0.004784  -0.002703  -0.000176   0.005771
     9  H   -0.003429  -0.031427   0.014499   0.000572   0.000065  -0.000499
               7          8          9
     1  C   -0.011366   0.009562  -0.003429
     2  C   -0.005930  -0.028922  -0.031427
     3  C   -0.012831   0.004784   0.014499
     4  H    0.000423  -0.002703   0.000572
     5  H    0.002840  -0.000176   0.000065
     6  H   -0.003086   0.005771  -0.000499
     7  H    0.015696  -0.000468   0.001386
     8  H   -0.000468   0.009445  -0.007233
     9  H    0.001386  -0.007233   0.006250
 Mulliken charges and spin densities:
               1          2
     1  C   -0.807943  -0.024038
     2  C    0.035384   0.957618
     3  C   -0.424042   1.037949
     4  H    0.211412   0.008169
     5  H    0.208483   0.010163
     6  H    0.214287   0.053230
     7  H    0.185011  -0.013336
     8  H    0.181390  -0.009940
     9  H    0.196019  -0.019815
 Sum of Mulliken charges =  -0.00000   2.00000
 Mulliken charges and spin densities with hydrogens summed into heavy atoms:
               1          2
     1  C   -0.173762   0.047524
     2  C    0.220395   0.944282
     3  C   -0.046633   1.008194
 Electronic spatial extent (au):  <R**2>=            196.5170
 Charge=             -0.0000 electrons
 Dipole moment (field-independent basis, Debye):
    X=             -0.5719    Y=             -0.4373    Z=              0.1083  Tot=              0.7281
 Quadrupole moment (field-independent basis, Debye-Ang):
   XX=            -21.4104   YY=            -20.6441   ZZ=            -21.6724
   XY=             -0.5888   XZ=             -1.1011   YZ=              0.6016
 Traceless Quadrupole moment (field-independent basis, Debye-Ang):
   XX=             -0.1681   YY=              0.5982   ZZ=             -0.4301
   XY=             -0.5888   XZ=             -1.1011   YZ=              0.6016
 Octapole moment (field-independent basis, Debye-Ang**2):
  XXX=             -3.6572  YYY=             -0.5201  ZZZ=              0.3798  XYY=             -0.7081
  XXY=              0.7192  XXZ=             -3.6722  XZZ=             -1.2679  YZZ=             -1.0564
  YYZ=              1.2659  XYZ=             -0.1455
 Hexadecapole moment (field-independent basis, Debye-Ang**3):
 XXXX=           -185.6533 YYYY=            -67.2314 ZZZZ=            -40.1338 XXXY=             -3.6226
 XXXZ=             -6.4887 YYYX=             -0.9319 YYYZ=              2.7973 ZZZX=             -3.0561
 ZZZY=              1.3653 XXYY=            -43.3882 XXZZ=            -38.4227 YYZZ=            -18.7040
 XXYZ=             -0.1408 YYXZ=              0.5226 ZZXY=              0.3612
 N-N= 6.924553328865D+01 E-N=-4.101982652122D+02  KE= 1.165704980722D+02
                          Isotropic Fermi Contact Couplings
        Atom                 a.u.       MegaHertz       Gauss      10(-4) cm-1
     1  C(13)              0.01449       8.14749       2.90723       2.71771
     2  C(13)              0.17002      95.56487      34.09992      31.87701
     3  C(13)              0.16884      94.90530      33.86457      31.65700
     4  H(1)               0.00575      12.85794       4.58803       4.28895
     5  H(1)               0.00482      10.77742       3.84565       3.59496
     6  H(1)               0.02547      56.92274      20.31145      18.98738
     7  H(1)               0.00608      13.58294       4.84673       4.53078
     8  H(1)               0.00457      10.20612       3.64180       3.40440
     9  H(1)               0.00357       7.96825       2.84327       2.65792
 --------------------------------------------------------
       Center         ----  Spin Dipole Couplings  ----
                      3XX-RR        3YY-RR        3ZZ-RR
 --------------------------------------------------------
     1   Atom        0.040367     -0.029505     -0.010862
     2   Atom       -0.481046     -0.363222      0.844268
     3   Atom       -0.122048     -0.208781      0.330829
     4   Atom        0.003123      0.012708     -0.015831
     5   Atom        0.024770     -0.012609     -0.012161
     6   Atom        0.010132     -0.008681     -0.001450
     7   Atom       -0.060921      0.055874      0.005048
     8   Atom       -0.047488      0.056835     -0.009347
     9   Atom        0.032810     -0.057688      0.024878
 --------------------------------------------------------
                        XY            XZ            YZ
 --------------------------------------------------------
     1   Atom        0.037619     -0.040509     -0.021342
     2   Atom        0.029639     -0.104057     -0.462265
     3   Atom        0.323842      0.574805      0.502042
     4   Atom        0.019142      0.007808      0.009633
     5   Atom        0.001962      0.001966     -0.001965
     6   Atom        0.014187     -0.010431     -0.010542
     7   Atom       -0.020750     -0.009978      0.039562
     8   Atom        0.024773      0.010497     -0.041228
     9   Atom        0.006277     -0.051291      0.018589
 --------------------------------------------------------


 ---------------------------------------------------------------------------------
              Anisotropic Spin Dipole Couplings in Principal Axis System
 ---------------------------------------------------------------------------------

       Atom             a.u.   MegaHertz   Gauss  10(-4) cm-1        Axes

              Baa    -0.0466    -6.258    -2.233    -2.088 -0.3039  0.9292  0.2102
     1 C(13)  Bbb    -0.0332    -4.449    -1.588    -1.484  0.4957 -0.0342  0.8678
              Bcc     0.0798    10.707     3.821     3.572  0.8136  0.3679 -0.4502
 
              Baa    -0.5208   -69.880   -24.935   -23.310  0.1640  0.9305  0.3276
     2 C(13)  Bbb    -0.4880   -65.485   -23.367   -21.843  0.9838 -0.1786  0.0149
              Bcc     1.0088   135.365    48.302    45.153 -0.0723 -0.3199  0.9447
 
              Baa    -0.5218   -70.022   -24.985   -23.357 -0.5709 -0.4789  0.6669
     3 C(13)  Bbb    -0.4921   -66.041   -23.565   -22.029 -0.6495  0.7603 -0.0101
              Bcc     1.0139   136.062    48.550    45.385  0.5021  0.4389  0.7451
 
              Baa    -0.0191   -10.204    -3.641    -3.404 -0.1814 -0.1833  0.9662
     4 H(1)   Bbb    -0.0118    -6.302    -2.249    -2.102  0.7824 -0.6221  0.0288
              Bcc     0.0309    16.505     5.890     5.506  0.5958  0.7611  0.2563
 
              Baa    -0.0146    -7.767    -2.772    -2.591 -0.0703  0.7424  0.6662
     5 H(1)   Bbb    -0.0104    -5.553    -1.982    -1.852 -0.0043 -0.6681  0.7441
              Bcc     0.0250    13.321     4.753     4.443  0.9975  0.0495  0.0502
 
              Baa    -0.0180    -9.618    -3.432    -3.208 -0.3074  0.8787  0.3654
     6 H(1)   Bbb    -0.0073    -3.918    -1.398    -1.307  0.5835 -0.1293  0.8017
              Bcc     0.0254    13.536     4.830     4.515  0.7517  0.4596 -0.4730
 
              Baa    -0.0647   -34.505   -12.312   -11.510  0.9869  0.1518  0.0551
     7 H(1)   Bbb    -0.0165    -8.821    -3.147    -2.942  0.0238 -0.4741  0.8802
              Bcc     0.0812    43.326    15.460    14.452 -0.1597  0.8673  0.4715
 
              Baa    -0.0621   -33.140   -11.825   -11.054  0.8480 -0.3224 -0.4206
     8 H(1)   Bbb    -0.0171    -9.110    -3.251    -3.039  0.5102  0.2822  0.8124
              Bcc     0.0792    42.250    15.076    14.093  0.1432  0.9036 -0.4038
 
              Baa    -0.0656   -34.994   -12.487   -11.673 -0.2237  0.9219 -0.3163
     9 H(1)   Bbb    -0.0152    -8.097    -2.889    -2.701  0.6508  0.3828  0.6557
              Bcc     0.0808    43.091    15.376    14.374  0.7256 -0.0592 -0.6856
 

 ---------------------------------------------------------------------------------

 1\1\GINC-NODE31\SP\UB3LYP\6-31+G(d)\C3H6(3)\YANZ\12-Oct-2023\0\\# ub3l
 yp/6-31+g(d)\\tmpdir/M3_ref_22.gjf\\0,3\C,0,-1.07240839,1.28243937,0.0
 2074375\C,0,-1.80408589,0.68398541,1.22253756\C,0,-1.56036485,-0.78282
 937,1.30257086\H,0,-0.05693866,0.86562436,-0.00650244\H,0,-1.08734547,
 2.3742003,0.00010213\H,0,-1.65168046,0.82749647,-0.80422442\H,0,-2.809
 67507,1.06898249,1.39913883\H,0,-1.17868332,-1.17053419,0.33884542\H,0
 ,-1.10668637,-1.20451272,2.20001314\\Version=ES64L-G16RevA.03\State=3-
 A\HF=-117.7910504\S2=2.004131\S2-1=0.\S2A=2.000009\RMSD=5.858e-09\Dipo
 le=0.1152712,0.0915003,-0.2457493\Quadrupole=0.1773877,-0.120765,-0.05
 66227,-1.0475698,0.1266303,-0.2856157\PG=C01 [X(C3H6)]\\@


 Other things may change us, but we start and end with family.
 -- Anthony Brandt
 Job cpu time:       0 days  0 hours  0 minutes 38.4 seconds.
 Elapsed time:       0 days  0 hours  0 minutes  9.9 seconds.
 File lengths (MBytes):  RWF=      6 Int=      0 D2E=      0 Chk=      1 Scr=      1
 Normal termination of Gaussian 16 at Thu Oct 12 15:25:36 2023.
