 Entering Gaussian System, Link 0=g16
 Initial command:
 /share/apps/gaussian/g16/l1.exe "/tmp/58287.mgr/Gau-20928.inp" -scrdir="/tmp/58287.mgr/"
 Entering Link 1 = /share/apps/gaussian/g16/l1.exe PID=     20929.
  
 Copyright (c) 1988,1990,1992,1993,1995,1998,2003,2009,2016,
            Gaussian, Inc.  All Rights Reserved.
  
 This is part of the Gaussian(R) 16 program.  It is based on
 the Gaussian(R) 09 system (copyright 2009, Gaussian, Inc.),
 the Gaussian(R) 03 system (copyright 2003, Gaussian, Inc.),
 the Gaussian(R) 98 system (copyright 1998, Gaussian, Inc.),
 the Gaussian(R) 94 system (copyright 1995, Gaussian, Inc.),
 the Gaussian 92(TM) system (copyright 1992, Gaussian, Inc.),
 the Gaussian 90(TM) system (copyright 1990, Gaussian, Inc.),
 the Gaussian 88(TM) system (copyright 1988, Gaussian, Inc.),
 the Gaussian 86(TM) system (copyright 1986, Carnegie Mellon
 University), and the Gaussian 82(TM) system (copyright 1983,
 Carnegie Mellon University). Gaussian is a federally registered
 trademark of Gaussian, Inc.
  
 This software contains proprietary and confidential information,
 including trade secrets, belonging to Gaussian, Inc.
  
 This software is provided under written license and may be
 used, copied, transmitted, or stored only in accord with that
 written license.
  
 The following legend is applicable only to US Government
 contracts under FAR:
  
                    RESTRICTED RIGHTS LEGEND
  
 Use, reproduction and disclosure by the US Government is
 subject to restrictions as set forth in subparagraphs (a)
 and (c) of the Commercial Computer Software - Restricted
 Rights clause in FAR 52.227-19.
  
 Gaussian, Inc.
 340 Quinnipiac St., Bldg. 40, Wallingford CT 06492
  
  
 ---------------------------------------------------------------
 Warning -- This program may not be used in any manner that
 competes with the business of Gaussian, Inc. or will provide
 assistance to any competitor of Gaussian, Inc.  The licensee
 of this program is prohibited from giving any competitor of
 Gaussian, Inc. access to this program.  By using this program,
 the user acknowledges that Gaussian, Inc. is engaged in the
 business of creating and licensing software in the field of
 computational chemistry and represents and warrants to the
 licensee that it is not a competitor of Gaussian, Inc. and that
 it will not use this program in any manner prohibited above.
 ---------------------------------------------------------------
  

 Cite this work as:
 Gaussian 16, Revision A.03,
 M. J. Frisch, G. W. Trucks, H. B. Schlegel, G. E. Scuseria, 
 M. A. Robb, J. R. Cheeseman, G. Scalmani, V. Barone, 
 G. A. Petersson, H. Nakatsuji, X. Li, M. Caricato, A. V. Marenich, 
 J. Bloino, B. G. Janesko, R. Gomperts, B. Mennucci, H. P. Hratchian, 
 J. V. Ortiz, A. F. Izmaylov, J. L. Sonnenberg, D. Williams-Young, 
 F. Ding, F. Lipparini, F. Egidi, J. Goings, B. Peng, A. Petrone, 
 T. Henderson, D. Ranasinghe, V. G. Zakrzewski, J. Gao, N. Rega, 
 G. Zheng, W. Liang, M. Hada, M. Ehara, K. Toyota, R. Fukuda, 
 J. Hasegawa, M. Ishida, T. Nakajima, Y. Honda, O. Kitao, H. Nakai, 
 T. Vreven, K. Throssell, J. A. Montgomery, Jr., J. E. Peralta, 
 F. Ogliaro, M. J. Bearpark, J. J. Heyd, E. N. Brothers, K. N. Kudin, 
 V. N. Staroverov, T. A. Keith, R. Kobayashi, J. Normand, 
 K. Raghavachari, A. P. Rendell, J. C. Burant, S. S. Iyengar, 
 J. Tomasi, M. Cossi, J. M. Millam, M. Klene, C. Adamo, R. Cammi, 
 J. W. Ochterski, R. L. Martin, K. Morokuma, O. Farkas, 
 J. B. Foresman, and D. J. Fox, Gaussian, Inc., Wallingford CT, 2016.
 
 ******************************************
 Gaussian 16:  ES64L-G16RevA.03 25-Dec-2016
                12-Oct-2023 
 ******************************************
 %nprocshared=4
 Will use up to    4 processors via shared memory.
 %mem=4GB
 ------------------
 # ub3lyp/6-31+g(d)
 ------------------
 1/38=1,172=1/1;
 2/12=2,17=6,18=5,40=1/2;
 3/5=1,6=6,7=11,11=2,25=1,30=1,74=-5,116=2/1,2,3;
 4//1;
 5/5=2,38=5/2;
 6/7=2,8=2,9=2,10=2,28=1/1;
 99/5=1,9=1/99;
 --------------------
 tmpdir/M3_ref_18.gjf
 --------------------
 Symbolic Z-matrix:
 Charge =  0 Multiplicity = 2
 C                    -1.80409   0.68399   1.22254 
 C                    -1.07241   1.28244   0.02074 
 C                    -1.87263   0.65397  -1.11889 
 H                    -1.62766  -0.37782   1.28047 
 H                    -2.80968   1.06898   1.39914 
 H                    -0.05694   0.86562  -0.0065 
 H                    -1.08735   2.3742    0.0001 
 O                    -1.86004  -0.52433  -1.13297 
 H                    -2.45157   1.26792  -1.80134 
 
                          Input orientation:                          
 ---------------------------------------------------------------------
 Center     Atomic      Atomic             Coordinates (Angstroms)
 Number     Number       Type             X           Y           Z
 ---------------------------------------------------------------------
      1          6           0       -1.804086    0.683985    1.222538
      2          6           0       -1.072408    1.282439    0.020744
      3          6           0       -1.872634    0.653966   -1.118894
      4          1           0       -1.627660   -0.377821    1.280473
      5          1           0       -2.809675    1.068982    1.399139
      6          1           0       -0.056939    0.865624   -0.006502
      7          1           0       -1.087345    2.374200    0.000102
      8          8           0       -1.860038   -0.524330   -1.132970
      9          1           0       -2.451571    1.267922   -1.801344
 ---------------------------------------------------------------------
                    Distance matrix (angstroms):
                    1          2          3          4          5
     1  C    0.000000
     2  C    1.528989   0.000000
     3  C    2.342628   1.527781   0.000000
     4  H    1.077922   2.156777   2.623273   0.000000
     5  H    1.091156   2.227921   2.718598   1.872027   0.000000
     6  H    2.143841   1.098024   2.139852   2.381098   3.097538
     7  H    2.205650   1.092058   2.197279   3.083003   2.574357
     8  O    2.647938   2.283820   1.178448   2.429027   3.138795
     9  H    3.147074   2.285236   1.085287   3.589553   3.226593
                    6          7          8          9
     6  H    0.000000
     7  H    1.826905   0.000000
     8  O    2.540093   3.206616   0.000000
     9  H    3.019530   2.515983   2.002200   0.000000
 Stoichiometry    C3H5O(2)
 Framework group  C1[X(C3H5O)]
 Deg. of freedom    21
 Full point group                 C1      NOp   1
 Largest Abelian subgroup         C1      NOp   1
 Largest concise Abelian subgroup C1      NOp   1
                         Standard orientation:                         
 ---------------------------------------------------------------------
 Center     Atomic      Atomic             Coordinates (Angstroms)
 Number     Number       Type             X           Y           Z
 ---------------------------------------------------------------------
      1          6           0        1.347557   -0.592139    0.122897
      2          6           0        0.631845    0.699911   -0.272286
      3          6           0       -0.762773    0.412497    0.281382
      4          1           0        0.963729   -1.424182   -0.444814
      5          1           0        1.537590   -0.715818    1.190235
      6          1           0        0.562578    0.733867   -1.367597
      7          1           0        1.083385    1.597387    0.155780
      8          8           0       -1.282994   -0.541014   -0.175701
      9          1           0       -1.183110    1.015238    1.080049
 ---------------------------------------------------------------------
 Rotational constants (GHZ):          16.4801843           6.9001729           5.6482360
 Standard basis: 6-31+G(d) (6D, 7F)
 There are    86 symmetry adapted cartesian basis functions of A   symmetry.
 There are    86 symmetry adapted basis functions of A   symmetry.
    86 basis functions,   148 primitive gaussians,    86 cartesian basis functions
    16 alpha electrons       15 beta electrons
       nuclear repulsion energy       113.6650053243 Hartrees.
 NAtoms=    9 NActive=    9 NUniq=    9 SFac= 1.00D+00 NAtFMM=   60 NAOKFM=F Big=F
 Integral buffers will be    131072 words long.
 Raffenetti 2 integral format.
 Two-electron integral symmetry is turned on.
 One-electron integrals computed using PRISM.
 NBasis=    86 RedAO= T EigKep=  2.08D-04  NBF=    86
 NBsUse=    86 1.00D-06 EigRej= -1.00D+00 NBFU=    86
 ExpMin= 4.38D-02 ExpMax= 5.48D+03 ExpMxC= 8.25D+02 IAcc=3 IRadAn=         5 AccDes= 0.00D+00
 Harris functional with IExCor=  402 and IRadAn=       5 diagonalized for initial guess.
 HarFok:  IExCor=  402 AccDes= 0.00D+00 IRadAn=         5 IDoV= 1 UseB2=F ITyADJ=14
 ICtDFT=  3500011 ScaDFX=  1.000000  1.000000  1.000000  1.000000
 FoFCou: FMM=F IPFlag=           0 FMFlag=      100000 FMFlg1=           0
         NFxFlg=           0 DoJE=T BraDBF=F KetDBF=T FulRan=T
         wScrn=  0.000000 ICntrl=       500 IOpCl=  0 I1Cent=   200000004 NGrid=           0
         NMat0=    1 NMatS0=      1 NMatT0=    0 NMatD0=    1 NMtDS0=    0 NMtDT0=    0
 Petite list used in FoFCou.
 Initial guess <Sx>= 0.0000 <Sy>= 0.0000 <Sz>= 0.5000 <S**2>= 0.7500 S= 0.5000
 Keep R1 and R2 ints in memory in canonical form, NReq=17634651.
 Requested convergence on RMS density matrix=1.00D-08 within 128 cycles.
 Requested convergence on MAX density matrix=1.00D-06.
 Requested convergence on             energy=1.00D-06.
 No special actions if energy rises.
 SCF Done:  E(UB3LYP) =  -192.464529688     A.U. after   15 cycles
            NFock= 15  Conv=0.80D-08     -V/T= 2.0084
 <Sx>= 0.0000 <Sy>= 0.0000 <Sz>= 0.5000 <S**2>= 0.7541 S= 0.5021
 <L.S>= 0.000000000000E+00
 Annihilation of the first spin contaminant:
 S**2 before annihilation     0.7541,   after     0.7500

 **********************************************************************

            Population analysis using the SCF density.

 **********************************************************************

 Orbital symmetries:
 Alpha Orbitals:
       Occupied  (A) (A) (A) (A) (A) (A) (A) (A) (A) (A) (A) (A)
                 (A) (A) (A) (A)
       Virtual   (A) (A) (A) (A) (A) (A) (A) (A) (A) (A) (A) (A)
                 (A) (A) (A) (A) (A) (A) (A) (A) (A) (A) (A) (A)
                 (A) (A) (A) (A) (A) (A) (A) (A) (A) (A) (A) (A)
                 (A) (A) (A) (A) (A) (A) (A) (A) (A) (A) (A) (A)
                 (A) (A) (A) (A) (A) (A) (A) (A) (A) (A) (A) (A)
                 (A) (A) (A) (A) (A) (A) (A) (A) (A) (A)
 Beta  Orbitals:
       Occupied  (A) (A) (A) (A) (A) (A) (A) (A) (A) (A) (A) (A)
                 (A) (A) (A)
       Virtual   (A) (A) (A) (A) (A) (A) (A) (A) (A) (A) (A) (A)
                 (A) (A) (A) (A) (A) (A) (A) (A) (A) (A) (A) (A)
                 (A) (A) (A) (A) (A) (A) (A) (A) (A) (A) (A) (A)
                 (A) (A) (A) (A) (A) (A) (A) (A) (A) (A) (A) (A)
                 (A) (A) (A) (A) (A) (A) (A) (A) (A) (A) (A) (A)
                 (A) (A) (A) (A) (A) (A) (A) (A) (A) (A) (A)
 The electronic state is 2-A.
 Alpha  occ. eigenvalues --  -19.16660 -10.29092 -10.21486 -10.20895  -1.08750
 Alpha  occ. eigenvalues --   -0.79378  -0.65550  -0.58815  -0.50506  -0.46878
 Alpha  occ. eigenvalues --   -0.45184  -0.43121  -0.38388  -0.37330  -0.27758
 Alpha  occ. eigenvalues --   -0.22742
 Alpha virt. eigenvalues --   -0.04151   0.01289   0.02868   0.03194   0.04415
 Alpha virt. eigenvalues --    0.07096   0.07540   0.08104   0.08506   0.08681
 Alpha virt. eigenvalues --    0.11879   0.13312   0.15279   0.19515   0.20134
 Alpha virt. eigenvalues --    0.21652   0.23940   0.25069   0.25148   0.27269
 Alpha virt. eigenvalues --    0.28582   0.29362   0.34063   0.34921   0.42233
 Alpha virt. eigenvalues --    0.60833   0.63609   0.65754   0.66460   0.67580
 Alpha virt. eigenvalues --    0.71833   0.73668   0.77967   0.85296   0.93743
 Alpha virt. eigenvalues --    0.94252   0.96991   1.02832   1.06556   1.10214
 Alpha virt. eigenvalues --    1.15138   1.20775   1.23854   1.26921   1.30710
 Alpha virt. eigenvalues --    1.39099   1.53517   1.57724   1.62969   1.72474
 Alpha virt. eigenvalues --    1.80858   1.84040   1.87990   1.94267   1.97891
 Alpha virt. eigenvalues --    2.09180   2.13483   2.21542   2.27564   2.35697
 Alpha virt. eigenvalues --    2.39043   2.51561   2.60857   2.69738   2.87460
 Alpha virt. eigenvalues --    3.07466   4.13425   4.18229   4.24686   4.45957
  Beta  occ. eigenvalues --  -19.16520 -10.29004 -10.20942 -10.20106  -1.08487
  Beta  occ. eigenvalues --   -0.78161  -0.63569  -0.58140  -0.50028  -0.46213
  Beta  occ. eigenvalues --   -0.44725  -0.42398  -0.37778  -0.36675  -0.26974
  Beta virt. eigenvalues --   -0.08195  -0.03302   0.01356   0.02960   0.03564
  Beta virt. eigenvalues --    0.04629   0.07208   0.07962   0.08121   0.08533
  Beta virt. eigenvalues --    0.09372   0.12136   0.13498   0.15609   0.19736
  Beta virt. eigenvalues --    0.20541   0.22081   0.24330   0.25356   0.26019
  Beta virt. eigenvalues --    0.27817   0.29191   0.29471   0.34418   0.35194
  Beta virt. eigenvalues --    0.42374   0.61338   0.63849   0.66196   0.66948
  Beta virt. eigenvalues --    0.70838   0.74132   0.74834   0.78639   0.85856
  Beta virt. eigenvalues --    0.93948   0.94695   0.97818   1.04287   1.06758
  Beta virt. eigenvalues --    1.10853   1.15704   1.21372   1.24109   1.27538
  Beta virt. eigenvalues --    1.31283   1.40317   1.53962   1.59170   1.64118
  Beta virt. eigenvalues --    1.73925   1.82172   1.85183   1.90011   1.95975
  Beta virt. eigenvalues --    1.98938   2.10211   2.17515   2.22570   2.28488
  Beta virt. eigenvalues --    2.37225   2.39583   2.52347   2.61157   2.70512
  Beta virt. eigenvalues --    2.87753   3.07629   4.15367   4.18567   4.25911
  Beta virt. eigenvalues --    4.46313
          Condensed to atoms (all electrons):
               1          2          3          4          5          6
     1  C    5.593447   0.148005  -0.029219   0.398215   0.367194  -0.051484
     2  C    0.148005   5.804586   0.162554  -0.052069  -0.058985   0.392385
     3  C   -0.029219   0.162554   4.919569  -0.017675   0.022158  -0.022741
     4  H    0.398215  -0.052069  -0.017675   0.475788  -0.029606  -0.005875
     5  H    0.367194  -0.058985   0.022158  -0.029606   0.510528   0.003835
     6  H   -0.051484   0.392385  -0.022741  -0.005875   0.003835   0.481138
     7  H   -0.040713   0.366033  -0.036169   0.003923  -0.003767  -0.025074
     8  O   -0.030403  -0.140853   0.425743   0.006021  -0.003189  -0.008590
     9  H    0.010549  -0.116588   0.379826  -0.000015   0.000351   0.002552
               7          8          9
     1  C   -0.040713  -0.030403   0.010549
     2  C    0.366033  -0.140853  -0.116588
     3  C   -0.036169   0.425743   0.379826
     4  H    0.003923   0.006021  -0.000015
     5  H   -0.003767  -0.003189   0.000351
     6  H   -0.025074  -0.008590   0.002552
     7  H    0.522124   0.009381   0.004560
     8  O    0.009381   8.140768  -0.061959
     9  H    0.004560  -0.061959   0.615433
          Atomic-Atomic Spin Densities.
               1          2          3          4          5          6
     1  C    1.280719  -0.108988  -0.026300  -0.012776  -0.010570  -0.008620
     2  C   -0.108988  -0.031667   0.033978  -0.000943  -0.004054   0.002476
     3  C   -0.026300   0.033978   0.036545   0.000064   0.000457  -0.003720
     4  H   -0.012776  -0.000943   0.000064  -0.031515   0.002952   0.001433
     5  H   -0.010570  -0.004054   0.000457   0.002952  -0.029526   0.000187
     6  H   -0.008620   0.002476  -0.003720   0.001433   0.000187   0.014042
     7  H   -0.007483   0.002569  -0.002825   0.000011   0.001133   0.002822
     8  O   -0.019419   0.003272  -0.010869  -0.000087  -0.000499   0.001559
     9  H    0.007306  -0.008795  -0.001388   0.000106   0.000192   0.000499
               7          8          9
     1  C   -0.007483  -0.019419   0.007306
     2  C    0.002569   0.003272  -0.008795
     3  C   -0.002825  -0.010869  -0.001388
     4  H    0.000011  -0.000087   0.000106
     5  H    0.001133  -0.000499   0.000192
     6  H    0.002822   0.001559   0.000499
     7  H    0.012645   0.000075   0.000942
     8  O    0.000075   0.073883  -0.002985
     9  H    0.000942  -0.002985   0.011448
 Mulliken charges and spin densities:
               1          2
     1  C   -0.365590   1.093870
     2  C   -0.505067  -0.112152
     3  C    0.195955   0.025942
     4  H    0.221292  -0.040756
     5  H    0.191481  -0.039729
     6  H    0.233854   0.010680
     7  H    0.199703   0.009889
     8  O   -0.336919   0.044931
     9  H    0.165292   0.007325
 Sum of Mulliken charges =  -0.00000   1.00000
 Mulliken charges and spin densities with hydrogens summed into heavy atoms:
               1          2
     1  C    0.047182   1.013385
     2  C   -0.071510  -0.091583
     3  C    0.361247   0.033267
     8  O   -0.336919   0.044931
 Electronic spatial extent (au):  <R**2>=            261.5226
 Charge=              0.0000 electrons
 Dipole moment (field-independent basis, Debye):
    X=              0.8327    Y=              1.8468    Z=              0.8762  Tot=              2.2072
 Quadrupole moment (field-independent basis, Debye-Ang):
   XX=            -29.4895   YY=            -24.5099   ZZ=            -23.3336
   XY=             -2.0751   XZ=             -0.4386   YZ=              0.1390
 Traceless Quadrupole moment (field-independent basis, Debye-Ang):
   XX=             -3.7119   YY=              1.2678   ZZ=              2.4441
   XY=             -2.0751   XZ=             -0.4386   YZ=              0.1390
 Octapole moment (field-independent basis, Debye-Ang**2):
  XXX=             -8.8856  YYY=             -0.5334  ZZZ=             -0.4251  XYY=             -1.2217
  XXY=              4.5160  XXZ=              2.3446  XZZ=             -1.5633  YZZ=              0.1163
  YYZ=              0.1277  XYZ=             -0.2892
 Hexadecapole moment (field-independent basis, Debye-Ang**3):
 XXXX=           -229.5017 YYYY=            -96.8603 ZZZZ=            -49.7808 XXXY=              1.8464
 XXXZ=              2.4855 YYYX=              2.8485 YYYZ=              2.7424 ZZZX=              1.1026
 ZZZY=             -0.4473 XXYY=            -51.6673 XXZZ=            -41.2437 YYZZ=            -24.8640
 XXYZ=              0.0076 YYXZ=              0.1496 ZZXY=             -0.2649
 N-N= 1.136650053243D+02 E-N=-6.756852272592D+02  KE= 1.908587548870D+02
                          Isotropic Fermi Contact Couplings
        Atom                 a.u.       MegaHertz       Gauss      10(-4) cm-1
     1  C(13)              0.19065     214.32428      76.47623      71.49088
     2  C(13)             -0.01596     -17.93943      -6.40124      -5.98395
     3  C(13)              0.04857      54.60162      19.48321      18.21314
     4  H(1)              -0.00822     -36.75183     -13.11397     -12.25909
     5  H(1)              -0.00895     -40.02514     -14.28197     -13.35095
     6  H(1)               0.00496      22.15514       7.90550       7.39016
     7  H(1)               0.00508      22.71981       8.10699       7.57851
     8  O(17)              0.01477      -8.95164      -3.19417      -2.98595
     9  H(1)               0.00206       9.22770       3.29267       3.07803
 --------------------------------------------------------
       Center         ----  Spin Dipole Couplings  ----
                      3XX-RR        3YY-RR        3ZZ-RR
 --------------------------------------------------------
     1   Atom        0.780689     -0.475960     -0.304729
     2   Atom        0.015460      0.001783     -0.017243
     3   Atom        0.036862     -0.014181     -0.022681
     4   Atom       -0.004473      0.015966     -0.011492
     5   Atom       -0.007902     -0.060901      0.068804
     6   Atom       -0.002460     -0.000023      0.002483
     7   Atom       -0.007266      0.016626     -0.009360
     8   Atom       -0.096172      0.009883      0.086289
     9   Atom        0.003030     -0.000268     -0.002762
 --------------------------------------------------------
                        XY            XZ            YZ
 --------------------------------------------------------
     1   Atom        0.175595     -0.501234     -0.068662
     2   Atom       -0.015185     -0.006205     -0.004060
     3   Atom        0.039029     -0.050351     -0.005175
     4   Atom        0.035555      0.002999      0.057067
     5   Atom        0.003641      0.010524     -0.015086
     6   Atom       -0.007153      0.008096     -0.012018
     7   Atom       -0.005076     -0.000973      0.001696
     8   Atom       -0.033081      0.052280     -0.152424
     9   Atom       -0.004496     -0.004994      0.004009
 --------------------------------------------------------


 ---------------------------------------------------------------------------------
              Anisotropic Spin Dipole Couplings in Principal Axis System
 ---------------------------------------------------------------------------------

       Atom             a.u.   MegaHertz   Gauss  10(-4) cm-1        Axes

              Baa    -0.5008   -67.200   -23.979   -22.416  0.3670 -0.0239  0.9299
     1 C(13)  Bbb    -0.5000   -67.099   -23.943   -22.382 -0.1091  0.9917  0.0686
              Bcc     1.0008   134.300    47.921    44.797  0.9238  0.1266 -0.3613
 
              Baa    -0.0210    -2.816    -1.005    -0.939  0.2996  0.3575  0.8846
     2 C(13)  Bbb    -0.0045    -0.605    -0.216    -0.202  0.4421  0.7696 -0.4607
              Bcc     0.0255     3.421     1.221     1.141  0.8455 -0.5291 -0.0725
 
              Baa    -0.0581    -7.791    -2.780    -2.599  0.5529 -0.4060  0.7276
     3 C(13)  Bbb    -0.0219    -2.940    -1.049    -0.981 -0.0943  0.8371  0.5388
              Bcc     0.0800    10.731     3.829     3.579  0.8279  0.3665 -0.4246
 
              Baa    -0.0638   -34.065   -12.155   -11.363  0.3507 -0.6430  0.6808
     4 H(1)   Bbb    -0.0090    -4.811    -1.717    -1.605  0.8598 -0.0671 -0.5063
              Bcc     0.0729    38.876    13.872    12.968  0.3713  0.7629  0.5293
 
              Baa    -0.0631   -33.645   -12.006   -11.223 -0.0882  0.9888  0.1202
     5 H(1)   Bbb    -0.0087    -4.665    -1.665    -1.556  0.9882  0.1020 -0.1143
              Bcc     0.0718    38.311    13.670    12.779  0.1252 -0.1087  0.9862
 
              Baa    -0.0109    -5.793    -2.067    -1.932 -0.0296  0.7336  0.6789
     6 H(1)   Bbb    -0.0079    -4.239    -1.513    -1.414  0.8910  0.3272 -0.3147
              Bcc     0.0188    10.032     3.580     3.346  0.4530 -0.5956  0.6634
 
              Baa    -0.0097    -5.201    -1.856    -1.735  0.3948  0.0169  0.9186
     7 H(1)   Bbb    -0.0080    -4.289    -1.531    -1.431  0.8966  0.2113 -0.3892
              Bcc     0.0178     9.490     3.386     3.166 -0.2007  0.9773  0.0682
 
              Baa    -0.1146     8.295     2.960     2.767  0.6709 -0.4962 -0.5510
     8 O(17)  Bbb    -0.1027     7.430     2.651     2.478  0.7160  0.6267  0.3074
              Bcc     0.2173   -15.725    -5.611    -5.245  0.1928 -0.6008  0.7758
 
              Baa    -0.0061    -3.278    -1.170    -1.093  0.2954 -0.3738  0.8792
     9 H(1)   Bbb    -0.0034    -1.792    -0.639    -0.598  0.6302  0.7679  0.1147
              Bcc     0.0095     5.070     1.809     1.691  0.7181 -0.5202 -0.4624
 

 ---------------------------------------------------------------------------------

 1\1\GINC-NODE31\SP\UB3LYP\6-31+G(d)\C3H5O1(2)\YANZ\12-Oct-2023\0\\# ub
 3lyp/6-31+g(d)\\tmpdir/M3_ref_18.gjf\\0,2\C,0,-1.80408589,0.68398541,1
 .22253756\C,0,-1.07240839,1.28243937,0.02074375\C,0,-1.87263393,0.6539
 6624,-1.11889449\H,0,-1.62765964,-0.37782127,1.28047255\H,0,-2.8096750
 7,1.06898249,1.39913883\H,0,-0.05693866,0.86562436,-0.00650244\H,0,-1.
 08734547,2.3742003,0.00010213\O,0,-1.86003805,-0.52432998,-1.1329702\H
 ,0,-2.4515713,1.26792245,-1.8013437\\Version=ES64L-G16RevA.03\State=2-
 A\HF=-192.4645297\S2=0.754111\S2-1=0.\S2A=0.750013\RMSD=8.016e-09\Dipo
 le=-0.0154717,0.8667732,-0.0504809\Quadrupole=1.4895133,-0.758181,-0.7
 313322,-0.8759082,-0.4899271,-2.3935037\PG=C01 [X(C3H5O1)]\\@


 THE MOLECULE ALSO HAS A BODY.  WHEN THIS BODY IS HIT, THE MOLECULE
 FEELS HURT ALL OVER -- A. KITAIGORODSKI
 Job cpu time:       0 days  0 hours  0 minutes 58.3 seconds.
 Elapsed time:       0 days  0 hours  0 minutes 15.1 seconds.
 File lengths (MBytes):  RWF=     10 Int=      0 D2E=      0 Chk=      2 Scr=      1
 Normal termination of Gaussian 16 at Thu Oct 12 15:25:14 2023.
