 Entering Gaussian System, Link 0=g16
 Initial command:
 /share/apps/gaussian/g16/l1.exe "/tmp/58287.mgr/Gau-21292.inp" -scrdir="/tmp/58287.mgr/"
 Entering Link 1 = /share/apps/gaussian/g16/l1.exe PID=     21293.
  
 Copyright (c) 1988,1990,1992,1993,1995,1998,2003,2009,2016,
            Gaussian, Inc.  All Rights Reserved.
  
 This is part of the Gaussian(R) 16 program.  It is based on
 the Gaussian(R) 09 system (copyright 2009, Gaussian, Inc.),
 the Gaussian(R) 03 system (copyright 2003, Gaussian, Inc.),
 the Gaussian(R) 98 system (copyright 1998, Gaussian, Inc.),
 the Gaussian(R) 94 system (copyright 1995, Gaussian, Inc.),
 the Gaussian 92(TM) system (copyright 1992, Gaussian, Inc.),
 the Gaussian 90(TM) system (copyright 1990, Gaussian, Inc.),
 the Gaussian 88(TM) system (copyright 1988, Gaussian, Inc.),
 the Gaussian 86(TM) system (copyright 1986, Carnegie Mellon
 University), and the Gaussian 82(TM) system (copyright 1983,
 Carnegie Mellon University). Gaussian is a federally registered
 trademark of Gaussian, Inc.
  
 This software contains proprietary and confidential information,
 including trade secrets, belonging to Gaussian, Inc.
  
 This software is provided under written license and may be
 used, copied, transmitted, or stored only in accord with that
 written license.
  
 The following legend is applicable only to US Government
 contracts under FAR:
  
                    RESTRICTED RIGHTS LEGEND
  
 Use, reproduction and disclosure by the US Government is
 subject to restrictions as set forth in subparagraphs (a)
 and (c) of the Commercial Computer Software - Restricted
 Rights clause in FAR 52.227-19.
  
 Gaussian, Inc.
 340 Quinnipiac St., Bldg. 40, Wallingford CT 06492
  
  
 ---------------------------------------------------------------
 Warning -- This program may not be used in any manner that
 competes with the business of Gaussian, Inc. or will provide
 assistance to any competitor of Gaussian, Inc.  The licensee
 of this program is prohibited from giving any competitor of
 Gaussian, Inc. access to this program.  By using this program,
 the user acknowledges that Gaussian, Inc. is engaged in the
 business of creating and licensing software in the field of
 computational chemistry and represents and warrants to the
 licensee that it is not a competitor of Gaussian, Inc. and that
 it will not use this program in any manner prohibited above.
 ---------------------------------------------------------------
  

 Cite this work as:
 Gaussian 16, Revision A.03,
 M. J. Frisch, G. W. Trucks, H. B. Schlegel, G. E. Scuseria, 
 M. A. Robb, J. R. Cheeseman, G. Scalmani, V. Barone, 
 G. A. Petersson, H. Nakatsuji, X. Li, M. Caricato, A. V. Marenich, 
 J. Bloino, B. G. Janesko, R. Gomperts, B. Mennucci, H. P. Hratchian, 
 J. V. Ortiz, A. F. Izmaylov, J. L. Sonnenberg, D. Williams-Young, 
 F. Ding, F. Lipparini, F. Egidi, J. Goings, B. Peng, A. Petrone, 
 T. Henderson, D. Ranasinghe, V. G. Zakrzewski, J. Gao, N. Rega, 
 G. Zheng, W. Liang, M. Hada, M. Ehara, K. Toyota, R. Fukuda, 
 J. Hasegawa, M. Ishida, T. Nakajima, Y. Honda, O. Kitao, H. Nakai, 
 T. Vreven, K. Throssell, J. A. Montgomery, Jr., J. E. Peralta, 
 F. Ogliaro, M. J. Bearpark, J. J. Heyd, E. N. Brothers, K. N. Kudin, 
 V. N. Staroverov, T. A. Keith, R. Kobayashi, J. Normand, 
 K. Raghavachari, A. P. Rendell, J. C. Burant, S. S. Iyengar, 
 J. Tomasi, M. Cossi, J. M. Millam, M. Klene, C. Adamo, R. Cammi, 
 J. W. Ochterski, R. L. Martin, K. Morokuma, O. Farkas, 
 J. B. Foresman, and D. J. Fox, Gaussian, Inc., Wallingford CT, 2016.
 
 ******************************************
 Gaussian 16:  ES64L-G16RevA.03 25-Dec-2016
                12-Oct-2023 
 ******************************************
 %nprocshared=4
 Will use up to    4 processors via shared memory.
 %mem=4GB
 ------------------
 # ub3lyp/6-31+g(d)
 ------------------
 1/38=1,172=1/1;
 2/12=2,17=6,18=5,40=1/2;
 3/5=1,6=6,7=11,11=2,25=1,30=1,74=-5,116=2/1,2,3;
 4//1;
 5/5=2,38=5/2;
 6/7=2,8=2,9=2,10=2,28=1/1;
 99/5=1,9=1/99;
 --------------------
 tmpdir/M3_ref_16.gjf
 --------------------
 Symbolic Z-matrix:
 Charge =  0 Multiplicity = 1
 C                     0.33039   0.70664  -0.0169 
 C                    -1.07241   1.28244   0.02074 
 C                    -1.87263   0.65397  -1.11889 
 C                     0.35803  -0.6951   -0.06228 
 C                     1.51457   1.42596   0.00432 
 C                     1.56914  -1.37271  -0.06898 
 C                     2.73397   0.74492  -0.01998 
 H                     1.49361   2.51222   0.04105 
 C                     2.76086  -0.64578  -0.05544 
 H                     1.58782  -2.45944  -0.09246 
 H                     3.66449   1.3048   -0.00921 
 H                     3.71236  -1.16918  -0.07324 
 H                    -1.60206   0.84923   0.89071 
 H                    -1.08735   2.3742    0.0001 
 O                    -1.86004  -0.52433  -1.13297 
 H                    -2.45157   1.26792  -1.80134 
 H                    -0.64899  -1.14631  -0.03801 
 
                          Input orientation:                          
 ---------------------------------------------------------------------
 Center     Atomic      Atomic             Coordinates (Angstroms)
 Number     Number       Type             X           Y           Z
 ---------------------------------------------------------------------
      1          6           0        0.330395    0.706637   -0.016895
      2          6           0       -1.072408    1.282439    0.020744
      3          6           0       -1.872634    0.653966   -1.118894
      4          6           0        0.358030   -0.695095   -0.062281
      5          6           0        1.514569    1.425958    0.004316
      6          6           0        1.569139   -1.372715   -0.068976
      7          6           0        2.733973    0.744920   -0.019982
      8          1           0        1.493615    2.512221    0.041045
      9          6           0        2.760863   -0.645777   -0.055435
     10          1           0        1.587816   -2.459440   -0.092460
     11          1           0        3.664487    1.304805   -0.009211
     12          1           0        3.712363   -1.169184   -0.073236
     13          1           0       -1.602059    0.849227    0.890705
     14          1           0       -1.087345    2.374200    0.000102
     15          8           0       -1.860038   -0.524330   -1.132970
     16          1           0       -2.451571    1.267922   -1.801344
     17          1           0       -0.648988   -1.146310   -0.038009
 ---------------------------------------------------------------------
                    Distance matrix (angstroms):
                    1          2          3          4          5
     1  C    0.000000
     2  C    1.516846   0.000000
     3  C    2.463841   1.527781   0.000000
     4  C    1.402740   2.442067   2.812874   0.000000
     5  C    1.385691   2.591007   3.651125   2.416792   0.000000
     6  C    2.420930   3.746420   4.129838   1.387803   2.800164
     7  C    2.403885   3.844363   4.736740   2.778586   1.396907
     8  H    2.148621   2.845567   4.016242   3.403984   1.087087
     9  C    2.781670   4.291596   4.928445   2.403349   2.418451
    10  H    3.407472   4.592523   4.766716   2.150859   3.887293
    11  H    3.387334   4.737043   5.684602   3.864592   2.153371
    12  H    3.867762   5.377111   5.967367   3.387687   3.401628
    13  H    2.139731   1.106814   2.037113   2.671155   3.291151
    14  H    2.188845   1.092058   2.197279   3.393167   2.769321
    15  O    2.749346   2.283820   1.178448   2.468879   4.060174
    16  H    3.352407   2.285236   1.085287   3.843389   4.360694
    17  H    2.095960   2.466082   2.430353   1.103752   3.361447
                    6          7          8          9         10
     6  C    0.000000
     7  C    2.417358   0.000000
     8  H    3.887228   2.159992   0.000000
     9  C    1.396005   1.391409   3.404142   0.000000
    10  H    1.087139   3.403947   4.974346   2.160274   0.000000
    11  H    3.400466   1.086021   2.484566   2.150219   4.299887
    12  H    2.152871   2.150320   4.299843   1.086104   2.485725
    13  H    3.989300   4.431863   3.615339   4.708005   4.699915
    14  H    4.593588   4.154207   2.584973   4.892040   5.525318
    15  O    3.689321   4.894351   4.673965   4.746426   4.088399
    16  H    5.112746   5.507872   4.528484   5.820646   5.755881
    17  H    2.229866   3.875758   4.240500   3.446436   2.594334
                   11         12         13         14         15
    11  H    0.000000
    12  H    2.475280   0.000000
    13  H    5.362267   5.765956   0.000000
    14  H    4.870688   5.966419   1.839470   0.000000
    15  O    5.926967   5.708811   2.459365   3.206616   0.000000
    16  H    6.373325   6.849812   2.853788   2.515983   2.002200
    17  H    4.961336   4.361552   2.398546   3.547901   1.747124
                   16         17
    16  H    0.000000
    17  H    3.491013   0.000000
 Stoichiometry    C8H8O
 Framework group  C1[X(C8H8O)]
 Deg. of freedom    45
 Full point group                 C1      NOp   1
 Largest Abelian subgroup         C1      NOp   1
 Largest concise Abelian subgroup C1      NOp   1
                         Standard orientation:                         
 ---------------------------------------------------------------------
 Center     Atomic      Atomic             Coordinates (Angstroms)
 Number     Number       Type             X           Y           Z
 ---------------------------------------------------------------------
      1          6           0       -0.111408    0.538735    0.220617
      2          6           0       -1.540227    0.983763    0.468103
      3          6           0       -2.458203    0.140800   -0.415553
      4          6           0        0.068167   -0.848399    0.326876
      5          6           0        0.966065    1.359897   -0.070731
      6          6           0        1.327184   -1.407412    0.158420
      7          6           0        2.230349    0.795961   -0.257582
      8          1           0        0.827641    2.435094   -0.151648
      9          6           0        2.409749   -0.579046   -0.142727
     10          1           0        1.465865   -2.481537    0.252740
     11          1           0        3.076552    1.435168   -0.491670
     12          1           0        3.395561   -1.011030   -0.288288
     13          1           0       -1.848207    0.621705    1.467653
     14          1           0       -1.683920    2.057416    0.329500
     15          8           0       -2.313224   -1.023041   -0.300692
     16          1           0       -3.218975    0.604460   -1.035306
     17          1           0       -0.858784   -1.382737    0.598010
 ---------------------------------------------------------------------
 Rotational constants (GHZ):           3.7744492           1.2520442           0.9899555
 Standard basis: 6-31+G(d) (6D, 7F)
 There are   187 symmetry adapted cartesian basis functions of A   symmetry.
 There are   187 symmetry adapted basis functions of A   symmetry.
   187 basis functions,   320 primitive gaussians,   187 cartesian basis functions
    32 alpha electrons       32 beta electrons
       nuclear repulsion energy       407.4564128246 Hartrees.
 NAtoms=   17 NActive=   17 NUniq=   17 SFac= 1.00D+00 NAtFMM=   60 NAOKFM=F Big=F
 Integral buffers will be    131072 words long.
 Raffenetti 2 integral format.
 Two-electron integral symmetry is turned on.
 One-electron integrals computed using PRISM.
 NBasis=   187 RedAO= T EigKep=  3.67D-06  NBF=   187
 NBsUse=   187 1.00D-06 EigRej= -1.00D+00 NBFU=   187
 ExpMin= 4.38D-02 ExpMax= 5.48D+03 ExpMxC= 8.25D+02 IAcc=3 IRadAn=         5 AccDes= 0.00D+00
 Harris functional with IExCor=  402 and IRadAn=       5 diagonalized for initial guess.
 HarFok:  IExCor=  402 AccDes= 0.00D+00 IRadAn=         5 IDoV= 1 UseB2=F ITyADJ=14
 ICtDFT=  3500011 ScaDFX=  1.000000  1.000000  1.000000  1.000000
 FoFCou: FMM=F IPFlag=           0 FMFlag=      100000 FMFlg1=           0
         NFxFlg=           0 DoJE=T BraDBF=F KetDBF=T FulRan=T
         wScrn=  0.000000 ICntrl=       500 IOpCl=  0 I1Cent=   200000004 NGrid=           0
         NMat0=    1 NMatS0=      1 NMatT0=    0 NMatD0=    1 NMtDS0=    0 NMtDT0=    0
 Petite list used in FoFCou.
 Initial guess <Sx>= 0.0000 <Sy>= 0.0000 <Sz>= 0.0000 <S**2>=-0.0000 S=-0.0000
 Keep R1 and R2 ints in memory in canonical form, NReq=313055663.
 Requested convergence on RMS density matrix=1.00D-08 within 128 cycles.
 Requested convergence on MAX density matrix=1.00D-06.
 Requested convergence on             energy=1.00D-06.
 No special actions if energy rises.
 SCF Done:  E(UB3LYP) =  -384.861782011     A.U. after   15 cycles
            NFock= 15  Conv=0.34D-08     -V/T= 2.0087
 <Sx>= 0.0000 <Sy>= 0.0000 <Sz>= 0.0000 <S**2>=-0.0000 S=-0.0000
 <L.S>= 0.000000000000E+00
 Annihilation of the first spin contaminant:
 S**2 before annihilation    -0.0000,   after     0.0000

 **********************************************************************

            Population analysis using the SCF density.

 **********************************************************************

 Orbital symmetries:
 Alpha Orbitals:
       Occupied  (A) (A) (A) (A) (A) (A) (A) (A) (A) (A) (A) (A)
                 (A) (A) (A) (A) (A) (A) (A) (A) (A) (A) (A) (A)
                 (A) (A) (A) (A) (A) (A) (A) (A)
       Virtual   (A) (A) (A) (A) (A) (A) (A) (A) (A) (A) (A) (A)
                 (A) (A) (A) (A) (A) (A) (A) (A) (A) (A) (A) (A)
                 (A) (A) (A) (A) (A) (A) (A) (A) (A) (A) (A) (A)
                 (A) (A) (A) (A) (A) (A) (A) (A) (A) (A) (A) (A)
                 (A) (A) (A) (A) (A) (A) (A) (A) (A) (A) (A) (A)
                 (A) (A) (A) (A) (A) (A) (A) (A) (A) (A) (A) (A)
                 (A) (A) (A) (A) (A) (A) (A) (A) (A) (A) (A) (A)
                 (A) (A) (A) (A) (A) (A) (A) (A) (A) (A) (A) (A)
                 (A) (A) (A) (A) (A) (A) (A) (A) (A) (A) (A) (A)
                 (A) (A) (A) (A) (A) (A) (A) (A) (A) (A) (A) (A)
                 (A) (A) (A) (A) (A) (A) (A) (A) (A) (A) (A) (A)
                 (A) (A) (A) (A) (A) (A) (A) (A) (A) (A) (A) (A)
                 (A) (A) (A) (A) (A) (A) (A) (A) (A) (A) (A)
 Beta  Orbitals:
       Occupied  (A) (A) (A) (A) (A) (A) (A) (A) (A) (A) (A) (A)
                 (A) (A) (A) (A) (A) (A) (A) (A) (A) (A) (A) (A)
                 (A) (A) (A) (A) (A) (A) (A) (A)
       Virtual   (A) (A) (A) (A) (A) (A) (A) (A) (A) (A) (A) (A)
                 (A) (A) (A) (A) (A) (A) (A) (A) (A) (A) (A) (A)
                 (A) (A) (A) (A) (A) (A) (A) (A) (A) (A) (A) (A)
                 (A) (A) (A) (A) (A) (A) (A) (A) (A) (A) (A) (A)
                 (A) (A) (A) (A) (A) (A) (A) (A) (A) (A) (A) (A)
                 (A) (A) (A) (A) (A) (A) (A) (A) (A) (A) (A) (A)
                 (A) (A) (A) (A) (A) (A) (A) (A) (A) (A) (A) (A)
                 (A) (A) (A) (A) (A) (A) (A) (A) (A) (A) (A) (A)
                 (A) (A) (A) (A) (A) (A) (A) (A) (A) (A) (A) (A)
                 (A) (A) (A) (A) (A) (A) (A) (A) (A) (A) (A) (A)
                 (A) (A) (A) (A) (A) (A) (A) (A) (A) (A) (A) (A)
                 (A) (A) (A) (A) (A) (A) (A) (A) (A) (A) (A) (A)
                 (A) (A) (A) (A) (A) (A) (A) (A) (A) (A) (A)
 The electronic state is 1-A.
 Alpha  occ. eigenvalues --  -19.16996 -10.29408 -10.21053 -10.20220 -10.19481
 Alpha  occ. eigenvalues --  -10.19278 -10.19059 -10.18931 -10.17638  -1.09544
 Alpha  occ. eigenvalues --   -0.86135  -0.79100  -0.74590  -0.71652  -0.62187
 Alpha  occ. eigenvalues --   -0.60435  -0.57995  -0.51308  -0.50541  -0.47940
 Alpha  occ. eigenvalues --   -0.46601  -0.45063  -0.43587  -0.41286  -0.40738
 Alpha  occ. eigenvalues --   -0.38324  -0.36198  -0.34999  -0.33850  -0.26934
 Alpha  occ. eigenvalues --   -0.24926  -0.24369
 Alpha virt. eigenvalues --   -0.05258  -0.00919  -0.00684   0.00542   0.01552
 Alpha virt. eigenvalues --    0.02747   0.02847   0.04385   0.04461   0.05843
 Alpha virt. eigenvalues --    0.06639   0.06733   0.07561   0.07826   0.09756
 Alpha virt. eigenvalues --    0.10303   0.10917   0.11236   0.12724   0.13392
 Alpha virt. eigenvalues --    0.14496   0.14794   0.15753   0.16186   0.17054
 Alpha virt. eigenvalues --    0.17350   0.17689   0.18406   0.18788   0.20105
 Alpha virt. eigenvalues --    0.20729   0.21221   0.22312   0.22559   0.23283
 Alpha virt. eigenvalues --    0.23870   0.24882   0.25128   0.25803   0.26256
 Alpha virt. eigenvalues --    0.27176   0.28156   0.29164   0.30057   0.30739
 Alpha virt. eigenvalues --    0.31164   0.32169   0.33059   0.34734   0.35923
 Alpha virt. eigenvalues --    0.36362   0.37480   0.39892   0.40699   0.45947
 Alpha virt. eigenvalues --    0.56942   0.60680   0.64483   0.67690   0.68118
 Alpha virt. eigenvalues --    0.69017   0.70137   0.71922   0.72732   0.72916
 Alpha virt. eigenvalues --    0.74000   0.74669   0.75825   0.76889   0.78189
 Alpha virt. eigenvalues --    0.79384   0.81108   0.82977   0.85371   0.88221
 Alpha virt. eigenvalues --    0.90603   0.92265   0.93689   0.95254   0.96298
 Alpha virt. eigenvalues --    0.99188   1.00886   1.03190   1.05969   1.08896
 Alpha virt. eigenvalues --    1.09248   1.10826   1.13295   1.16855   1.19224
 Alpha virt. eigenvalues --    1.20672   1.21905   1.24532   1.27295   1.28606
 Alpha virt. eigenvalues --    1.32900   1.34006   1.42031   1.44448   1.45563
 Alpha virt. eigenvalues --    1.47814   1.48763   1.50367   1.51229   1.54716
 Alpha virt. eigenvalues --    1.56363   1.65616   1.68149   1.79570   1.81898
 Alpha virt. eigenvalues --    1.84943   1.86125   1.89153   1.90949   1.95512
 Alpha virt. eigenvalues --    1.96638   1.97462   2.03290   2.08401   2.10083
 Alpha virt. eigenvalues --    2.12848   2.15762   2.16831   2.17492   2.20665
 Alpha virt. eigenvalues --    2.24682   2.30285   2.31610   2.35012   2.36164
 Alpha virt. eigenvalues --    2.37272   2.46147   2.57323   2.60763   2.63796
 Alpha virt. eigenvalues --    2.66328   2.66821   2.75184   2.75636   2.76841
 Alpha virt. eigenvalues --    2.79933   2.90122   2.92890   3.05853   3.12672
 Alpha virt. eigenvalues --    3.41695   4.20349   4.24767   4.25336   4.27579
 Alpha virt. eigenvalues --    4.30457   4.39006   4.40506   4.51595   4.72780
  Beta  occ. eigenvalues --  -19.16996 -10.29408 -10.21053 -10.20220 -10.19481
  Beta  occ. eigenvalues --  -10.19278 -10.19059 -10.18931 -10.17638  -1.09544
  Beta  occ. eigenvalues --   -0.86135  -0.79100  -0.74590  -0.71652  -0.62187
  Beta  occ. eigenvalues --   -0.60435  -0.57995  -0.51308  -0.50541  -0.47940
  Beta  occ. eigenvalues --   -0.46601  -0.45063  -0.43587  -0.41286  -0.40738
  Beta  occ. eigenvalues --   -0.38324  -0.36198  -0.34999  -0.33850  -0.26934
  Beta  occ. eigenvalues --   -0.24926  -0.24369
  Beta virt. eigenvalues --   -0.05258  -0.00919  -0.00684   0.00542   0.01552
  Beta virt. eigenvalues --    0.02747   0.02847   0.04385   0.04461   0.05843
  Beta virt. eigenvalues --    0.06639   0.06733   0.07561   0.07826   0.09756
  Beta virt. eigenvalues --    0.10303   0.10917   0.11236   0.12724   0.13392
  Beta virt. eigenvalues --    0.14496   0.14794   0.15753   0.16186   0.17054
  Beta virt. eigenvalues --    0.17350   0.17689   0.18406   0.18788   0.20105
  Beta virt. eigenvalues --    0.20729   0.21221   0.22312   0.22559   0.23283
  Beta virt. eigenvalues --    0.23870   0.24882   0.25128   0.25803   0.26256
  Beta virt. eigenvalues --    0.27176   0.28156   0.29164   0.30057   0.30739
  Beta virt. eigenvalues --    0.31164   0.32169   0.33059   0.34734   0.35923
  Beta virt. eigenvalues --    0.36362   0.37480   0.39892   0.40699   0.45947
  Beta virt. eigenvalues --    0.56942   0.60680   0.64483   0.67690   0.68118
  Beta virt. eigenvalues --    0.69017   0.70137   0.71922   0.72732   0.72916
  Beta virt. eigenvalues --    0.74000   0.74669   0.75825   0.76889   0.78189
  Beta virt. eigenvalues --    0.79384   0.81108   0.82977   0.85371   0.88221
  Beta virt. eigenvalues --    0.90603   0.92265   0.93689   0.95254   0.96298
  Beta virt. eigenvalues --    0.99188   1.00886   1.03190   1.05969   1.08896
  Beta virt. eigenvalues --    1.09248   1.10826   1.13295   1.16855   1.19224
  Beta virt. eigenvalues --    1.20672   1.21905   1.24532   1.27295   1.28606
  Beta virt. eigenvalues --    1.32900   1.34006   1.42031   1.44448   1.45563
  Beta virt. eigenvalues --    1.47814   1.48763   1.50367   1.51229   1.54716
  Beta virt. eigenvalues --    1.56363   1.65616   1.68149   1.79570   1.81898
  Beta virt. eigenvalues --    1.84943   1.86125   1.89153   1.90949   1.95512
  Beta virt. eigenvalues --    1.96638   1.97462   2.03290   2.08401   2.10083
  Beta virt. eigenvalues --    2.12848   2.15762   2.16831   2.17492   2.20665
  Beta virt. eigenvalues --    2.24682   2.30285   2.31610   2.35012   2.36164
  Beta virt. eigenvalues --    2.37272   2.46147   2.57323   2.60763   2.63796
  Beta virt. eigenvalues --    2.66328   2.66821   2.75184   2.75636   2.76841
  Beta virt. eigenvalues --    2.79933   2.90122   2.92890   3.05853   3.12672
  Beta virt. eigenvalues --    3.41695   4.20349   4.24767   4.25336   4.27579
  Beta virt. eigenvalues --    4.30457   4.39006   4.40506   4.51595   4.72780
          Condensed to atoms (all electrons):
               1          2          3          4          5          6
     1  C   10.504502  -0.855359  -0.170487  -0.219095  -2.891552  -0.170465
     2  C   -0.855359   6.647642   0.202995  -0.254702   0.543401  -0.117136
     3  C   -0.170487   0.202995   4.916841   0.053554   0.077514   0.006764
     4  C   -0.219095  -0.254702   0.053554  11.594110  -4.557540  -0.555866
     5  C   -2.891552   0.543401   0.077514  -4.557540  13.947825  -0.875639
     6  C   -0.170465  -0.117136   0.006764  -0.555866  -0.875639   6.960634
     7  C    0.044982  -0.066589  -0.000996  -0.078996  -0.439654   0.188893
     8  H    0.044559  -0.021115  -0.000102   0.032362   0.191598  -0.014137
     9  C   -0.716917   0.022367   0.005844   0.198204   0.607996   0.214370
    10  H    0.030459  -0.001331  -0.000307  -0.028645  -0.012786   0.314267
    11  H    0.037904  -0.002890  -0.000097  -0.004780  -0.041074   0.010343
    12  H    0.002193   0.001154  -0.000038   0.007365   0.004393  -0.004321
    13  H   -0.047305   0.417189  -0.059742   0.047481  -0.076104   0.006671
    14  H   -0.179660   0.428394  -0.010036  -0.037762   0.071661   0.007162
    15  O   -0.024678  -0.160971   0.459320  -0.146546  -0.127749   0.172886
    16  H   -0.028774  -0.113588   0.408441   0.017525  -0.026162   0.019726
    17  H   -0.029365  -0.020279  -0.013772   0.333689   0.048625  -0.018114
               7          8          9         10         11         12
     1  C    0.044982   0.044559  -0.716917   0.030459   0.037904   0.002193
     2  C   -0.066589  -0.021115   0.022367  -0.001331  -0.002890   0.001154
     3  C   -0.000996  -0.000102   0.005844  -0.000307  -0.000097  -0.000038
     4  C   -0.078996   0.032362   0.198204  -0.028645  -0.004780   0.007365
     5  C   -0.439654   0.191598   0.607996  -0.012786  -0.041074   0.004393
     6  C    0.188893  -0.014137   0.214370   0.314267   0.010343  -0.004321
     7  C    5.819620   0.027824   0.333362   0.014015   0.300988   0.004520
     8  H    0.027824   0.556686   0.013468   0.000019  -0.004784  -0.000157
     9  C    0.333362   0.013468   5.315945  -0.025831  -0.008219   0.275953
    10  H    0.014015   0.000019  -0.025831   0.540310  -0.000168  -0.004769
    11  H    0.300988  -0.004784  -0.008219  -0.000168   0.541977  -0.005096
    12  H    0.004520  -0.000157   0.275953  -0.004769  -0.005096   0.544939
    13  H    0.005696   0.000023  -0.002272  -0.000007   0.000002   0.000000
    14  H    0.008866   0.003565   0.000254   0.000003  -0.000002  -0.000000
    15  O    0.037428   0.000207  -0.034645   0.000705   0.000003   0.000030
    16  H    0.004677   0.000001  -0.002341   0.000000  -0.000000   0.000000
    17  H   -0.013469  -0.000197   0.017176  -0.004446   0.000016  -0.000137
              13         14         15         16         17
     1  C   -0.047305  -0.179660  -0.024678  -0.028774  -0.029365
     2  C    0.417189   0.428394  -0.160971  -0.113588  -0.020279
     3  C   -0.059742  -0.010036   0.459320   0.408441  -0.013772
     4  C    0.047481  -0.037762  -0.146546   0.017525   0.333689
     5  C   -0.076104   0.071661  -0.127749  -0.026162   0.048625
     6  C    0.006671   0.007162   0.172886   0.019726  -0.018114
     7  C    0.005696   0.008866   0.037428   0.004677  -0.013469
     8  H    0.000023   0.003565   0.000207   0.000001  -0.000197
     9  C   -0.002272   0.000254  -0.034645  -0.002341   0.017176
    10  H   -0.000007   0.000003   0.000705   0.000000  -0.004446
    11  H    0.000002  -0.000002   0.000003  -0.000000   0.000016
    12  H    0.000000  -0.000000   0.000030   0.000000  -0.000137
    13  H    0.489717  -0.024340  -0.010823   0.003600   0.000840
    14  H   -0.024340   0.523139   0.009527   0.002919   0.000128
    15  O   -0.010823   0.009527   8.227789  -0.056781  -0.047044
    16  H    0.003600   0.002919  -0.056781   0.600899  -0.000510
    17  H    0.000840   0.000128  -0.047044  -0.000510   0.509809
          Atomic-Atomic Spin Densities.
               1          2          3          4          5          6
     1  C   -0.000000   0.000000  -0.000000  -0.000000  -0.000000   0.000000
     2  C    0.000000   0.000000   0.000000  -0.000000   0.000000  -0.000000
     3  C   -0.000000   0.000000   0.000000   0.000000   0.000000  -0.000000
     4  C   -0.000000  -0.000000   0.000000  -0.000000   0.000000  -0.000000
     5  C   -0.000000   0.000000   0.000000   0.000000  -0.000000  -0.000000
     6  C    0.000000  -0.000000  -0.000000  -0.000000  -0.000000   0.000000
     7  C    0.000000  -0.000000  -0.000000  -0.000000  -0.000000   0.000000
     8  H   -0.000000   0.000000   0.000000  -0.000000   0.000000  -0.000000
     9  C   -0.000000   0.000000   0.000000   0.000000   0.000000  -0.000000
    10  H   -0.000000   0.000000   0.000000   0.000000   0.000000  -0.000000
    11  H   -0.000000  -0.000000  -0.000000  -0.000000  -0.000000   0.000000
    12  H   -0.000000   0.000000  -0.000000   0.000000   0.000000   0.000000
    13  H    0.000000  -0.000000   0.000000  -0.000000   0.000000  -0.000000
    14  H   -0.000000   0.000000  -0.000000   0.000000  -0.000000   0.000000
    15  O    0.000000  -0.000000  -0.000000  -0.000000  -0.000000   0.000000
    16  H    0.000000  -0.000000  -0.000000  -0.000000  -0.000000   0.000000
    17  H   -0.000000   0.000000   0.000000   0.000000  -0.000000  -0.000000
               7          8          9         10         11         12
     1  C    0.000000  -0.000000  -0.000000  -0.000000  -0.000000  -0.000000
     2  C   -0.000000   0.000000   0.000000   0.000000  -0.000000   0.000000
     3  C   -0.000000   0.000000   0.000000   0.000000  -0.000000  -0.000000
     4  C   -0.000000  -0.000000   0.000000   0.000000  -0.000000   0.000000
     5  C   -0.000000   0.000000   0.000000   0.000000  -0.000000   0.000000
     6  C    0.000000  -0.000000  -0.000000  -0.000000   0.000000   0.000000
     7  C    0.000000  -0.000000  -0.000000  -0.000000   0.000000  -0.000000
     8  H   -0.000000  -0.000000   0.000000  -0.000000   0.000000  -0.000000
     9  C   -0.000000   0.000000   0.000000   0.000000   0.000000   0.000000
    10  H   -0.000000  -0.000000   0.000000   0.000000   0.000000  -0.000000
    11  H    0.000000   0.000000   0.000000   0.000000  -0.000000   0.000000
    12  H   -0.000000  -0.000000   0.000000  -0.000000   0.000000   0.000000
    13  H    0.000000  -0.000000  -0.000000   0.000000  -0.000000  -0.000000
    14  H   -0.000000  -0.000000  -0.000000  -0.000000   0.000000   0.000000
    15  O    0.000000  -0.000000  -0.000000  -0.000000  -0.000000   0.000000
    16  H    0.000000   0.000000  -0.000000  -0.000000  -0.000000   0.000000
    17  H   -0.000000  -0.000000   0.000000   0.000000   0.000000  -0.000000
              13         14         15         16         17
     1  C    0.000000  -0.000000   0.000000   0.000000  -0.000000
     2  C   -0.000000   0.000000  -0.000000  -0.000000   0.000000
     3  C    0.000000  -0.000000  -0.000000  -0.000000   0.000000
     4  C   -0.000000   0.000000  -0.000000  -0.000000   0.000000
     5  C    0.000000  -0.000000  -0.000000  -0.000000  -0.000000
     6  C   -0.000000   0.000000   0.000000   0.000000  -0.000000
     7  C    0.000000  -0.000000   0.000000   0.000000  -0.000000
     8  H   -0.000000  -0.000000  -0.000000   0.000000  -0.000000
     9  C   -0.000000  -0.000000  -0.000000  -0.000000   0.000000
    10  H    0.000000  -0.000000  -0.000000  -0.000000   0.000000
    11  H   -0.000000   0.000000  -0.000000  -0.000000   0.000000
    12  H   -0.000000   0.000000   0.000000   0.000000  -0.000000
    13  H   -0.000000  -0.000000  -0.000000  -0.000000   0.000000
    14  H   -0.000000   0.000000  -0.000000   0.000000   0.000000
    15  O   -0.000000  -0.000000   0.000000   0.000000   0.000000
    16  H   -0.000000   0.000000   0.000000   0.000000   0.000000
    17  H    0.000000   0.000000   0.000000   0.000000  -0.000000
 Mulliken charges and spin densities:
               1          2
     1  C    0.669055  -0.000000
     2  C   -0.649182   0.000000
     3  C    0.124304  -0.000000
     4  C   -0.400357   0.000000
     5  C   -0.444754   0.000000
     6  C   -0.146040  -0.000000
     7  C   -0.191168  -0.000000
     8  H    0.170180  -0.000000
     9  C   -0.214714   0.000000
    10  H    0.178511   0.000000
    11  H    0.175876   0.000000
    12  H    0.173972   0.000000
    13  H    0.249373  -0.000000
    14  H    0.196185   0.000000
    15  O   -0.298659  -0.000000
    16  H    0.170366   0.000000
    17  H    0.237052  -0.000000
 Sum of Mulliken charges =  -0.00000  -0.00000
 Mulliken charges and spin densities with hydrogens summed into heavy atoms:
               1          2
     1  C    0.669055  -0.000000
     2  C   -0.203625   0.000000
     3  C    0.294670   0.000000
     4  C   -0.163305   0.000000
     5  C   -0.274574   0.000000
     6  C    0.032471  -0.000000
     7  C   -0.015292  -0.000000
     9  C   -0.040741   0.000000
    15  O   -0.298659  -0.000000
 Electronic spatial extent (au):  <R**2>=           1171.1527
 Charge=              0.0000 electrons
 Dipole moment (field-independent basis, Debye):
    X=             -0.6968    Y=              2.0647    Z=              0.0872  Tot=              2.1809
 Quadrupole moment (field-independent basis, Debye-Ang):
   XX=            -48.7060   YY=            -51.6996   ZZ=            -55.6444
   XY=             -5.6388   XZ=             -1.4177   YZ=             -1.7833
 Traceless Quadrupole moment (field-independent basis, Debye-Ang):
   XX=              3.3107   YY=              0.3171   ZZ=             -3.6277
   XY=             -5.6388   XZ=             -1.4177   YZ=             -1.7833
 Octapole moment (field-independent basis, Debye-Ang**2):
  XXX=             -8.9776  YYY=             -0.4854  ZZZ=             -0.8099  XYY=              4.6658
  XXY=             11.8968  XXZ=             -4.5929  XZZ=            -12.1677  YZZ=             -0.7899
  YYZ=              0.3299  XYZ=              2.1407
 Hexadecapole moment (field-independent basis, Debye-Ang**3):
 XXXX=          -1030.0379 YYYY=           -381.5591 ZZZZ=           -108.5130 XXXY=            -29.2261
 XXXZ=             -6.0107 YYYX=             -2.6527 YYYZ=             -5.8424 ZZZX=              3.2032
 ZZZY=              1.4709 XXYY=           -252.5718 XXZZ=           -205.0402 YYZZ=            -92.5636
 XXYZ=            -10.5098 YYXZ=             -3.5913 ZZXY=              2.2453
 N-N= 4.074564128246D+02 E-N=-1.708814436743D+03  KE= 3.815587434723D+02
                          Isotropic Fermi Contact Couplings
        Atom                 a.u.       MegaHertz       Gauss      10(-4) cm-1
     1  C(13)              0.00000       0.00000       0.00000       0.00000
     2  C(13)              0.00000       0.00000       0.00000       0.00000
     3  C(13)             -0.00000      -0.00000      -0.00000      -0.00000
     4  C(13)             -0.00000      -0.00000      -0.00000      -0.00000
     5  C(13)             -0.00000      -0.00000      -0.00000      -0.00000
     6  C(13)              0.00000       0.00000       0.00000       0.00000
     7  C(13)             -0.00000      -0.00000      -0.00000      -0.00000
     8  H(1)              -0.00000      -0.00000      -0.00000      -0.00000
     9  C(13)             -0.00000      -0.00000      -0.00000      -0.00000
    10  H(1)               0.00000       0.00000       0.00000       0.00000
    11  H(1)              -0.00000      -0.00000      -0.00000      -0.00000
    12  H(1)               0.00000       0.00000       0.00000       0.00000
    13  H(1)              -0.00000      -0.00000      -0.00000      -0.00000
    14  H(1)               0.00000       0.00000       0.00000       0.00000
    15  O(17)             -0.00000       0.00000       0.00000       0.00000
    16  H(1)              -0.00000      -0.00000      -0.00000      -0.00000
    17  H(1)              -0.00000      -0.00000      -0.00000      -0.00000
 --------------------------------------------------------
       Center         ----  Spin Dipole Couplings  ----
                      3XX-RR        3YY-RR        3ZZ-RR
 --------------------------------------------------------
     1   Atom        0.000000     -0.000000      0.000000
     2   Atom       -0.000000      0.000000      0.000000
     3   Atom        0.000000     -0.000000     -0.000000
     4   Atom       -0.000000      0.000000      0.000000
     5   Atom       -0.000000     -0.000000      0.000000
     6   Atom       -0.000000      0.000000     -0.000000
     7   Atom       -0.000000      0.000000      0.000000
     8   Atom       -0.000000      0.000000      0.000000
     9   Atom        0.000000      0.000000     -0.000000
    10   Atom        0.000000     -0.000000     -0.000000
    11   Atom       -0.000000     -0.000000      0.000000
    12   Atom       -0.000000      0.000000      0.000000
    13   Atom       -0.000000     -0.000000      0.000000
    14   Atom       -0.000000      0.000000      0.000000
    15   Atom       -0.000000      0.000000      0.000000
    16   Atom        0.000000      0.000000     -0.000000
    17   Atom        0.000000     -0.000000     -0.000000
 --------------------------------------------------------
                        XY            XZ            YZ
 --------------------------------------------------------
     1   Atom        0.000000      0.000000      0.000000
     2   Atom       -0.000000     -0.000000      0.000000
     3   Atom        0.000000     -0.000000     -0.000000
     4   Atom       -0.000000      0.000000     -0.000000
     5   Atom       -0.000000      0.000000     -0.000000
     6   Atom       -0.000000     -0.000000      0.000000
     7   Atom        0.000000     -0.000000      0.000000
     8   Atom        0.000000      0.000000      0.000000
     9   Atom        0.000000     -0.000000     -0.000000
    10   Atom        0.000000     -0.000000     -0.000000
    11   Atom       -0.000000     -0.000000     -0.000000
    12   Atom        0.000000      0.000000     -0.000000
    13   Atom       -0.000000     -0.000000     -0.000000
    14   Atom        0.000000     -0.000000     -0.000000
    15   Atom       -0.000000     -0.000000      0.000000
    16   Atom       -0.000000     -0.000000     -0.000000
    17   Atom        0.000000     -0.000000     -0.000000
 --------------------------------------------------------


 ---------------------------------------------------------------------------------
              Anisotropic Spin Dipole Couplings in Principal Axis System
 ---------------------------------------------------------------------------------

       Atom             a.u.   MegaHertz   Gauss  10(-4) cm-1        Axes

              Baa    -0.0000    -0.000    -0.000    -0.000 -0.6788  0.7211 -0.1383
     1 C(13)  Bbb     0.0000     0.000     0.000     0.000 -0.2384 -0.0383  0.9704
              Bcc     0.0000     0.000     0.000     0.000  0.6945  0.6917  0.1980
 
              Baa    -0.0000    -0.000    -0.000    -0.000  0.8163 -0.2053  0.5400
     2 C(13)  Bbb    -0.0000    -0.000    -0.000    -0.000  0.4677  0.7834 -0.4092
              Bcc     0.0000     0.000     0.000     0.000 -0.3390  0.5866  0.7355
 
              Baa    -0.0000    -0.000    -0.000    -0.000  0.0091  0.7247  0.6890
     3 C(13)  Bbb     0.0000     0.000     0.000     0.000  0.0848 -0.6871  0.7216
              Bcc     0.0000     0.000     0.000     0.000  0.9964  0.0518 -0.0677
 
              Baa    -0.0000    -0.000    -0.000    -0.000  0.8221 -0.3033 -0.4819
     4 C(13)  Bbb    -0.0000    -0.000    -0.000    -0.000  0.5341  0.7041  0.4679
              Bcc     0.0000     0.000     0.000     0.000  0.1974 -0.6421  0.7408
 
              Baa    -0.0000    -0.000    -0.000    -0.000  0.9425 -0.1435 -0.3018
     5 C(13)  Bbb    -0.0000    -0.000    -0.000    -0.000  0.1761  0.9808  0.0836
              Bcc     0.0000     0.000     0.000     0.000  0.2840 -0.1320  0.9497
 
              Baa    -0.0000    -0.000    -0.000    -0.000 -0.1761 -0.2751  0.9452
     6 C(13)  Bbb    -0.0000    -0.000    -0.000    -0.000  0.9011  0.3414  0.2672
              Bcc     0.0000     0.000     0.000     0.000 -0.3962  0.8988  0.1878
 
              Baa    -0.0000    -0.000    -0.000    -0.000  0.7379 -0.6391  0.2168
     7 C(13)  Bbb     0.0000     0.000     0.000     0.000 -0.0448  0.2742  0.9606
              Bcc     0.0000     0.000     0.000     0.000  0.6734  0.7186 -0.1737
 
              Baa    -0.0000    -0.000    -0.000    -0.000  0.9357 -0.3528  0.0087
     8 H(1)   Bbb     0.0000     0.000     0.000     0.000 -0.1958 -0.4986  0.8444
              Bcc     0.0000     0.000     0.000     0.000  0.2936  0.7918  0.5356
 
              Baa    -0.0000    -0.000    -0.000    -0.000  0.0092  0.1816  0.9833
     9 C(13)  Bbb     0.0000     0.000     0.000     0.000  0.9997 -0.0234 -0.0050
              Bcc     0.0000     0.000     0.000     0.000  0.0221  0.9831 -0.1817
 
              Baa    -0.0000    -0.000    -0.000    -0.000  0.0569  0.4435  0.8944
    10 H(1)   Bbb    -0.0000    -0.000    -0.000    -0.000 -0.3795  0.8383 -0.3915
              Bcc     0.0000     0.000     0.000     0.000  0.9234  0.3172 -0.2161
 
              Baa    -0.0000    -0.000    -0.000    -0.000  0.6541  0.7283  0.2041
    11 H(1)   Bbb    -0.0000    -0.000    -0.000    -0.000  0.7116 -0.6840  0.1604
              Bcc     0.0000     0.000     0.000     0.000 -0.2564 -0.0403  0.9657
 
              Baa    -0.0000    -0.000    -0.000    -0.000  0.8258 -0.5095 -0.2417
    12 H(1)   Bbb     0.0000     0.000     0.000     0.000  0.1312 -0.2432  0.9611
              Bcc     0.0000     0.000     0.000     0.000  0.5485  0.8254  0.1340
 
              Baa    -0.0000    -0.000    -0.000    -0.000  0.9464  0.3188  0.0523
    13 H(1)   Bbb    -0.0000    -0.000    -0.000    -0.000 -0.3231  0.9320  0.1643
              Bcc     0.0000     0.000     0.000     0.000  0.0036 -0.1724  0.9850
 
              Baa    -0.0000    -0.000    -0.000    -0.000  0.8905 -0.4428  0.1046
    14 H(1)   Bbb    -0.0000    -0.000    -0.000    -0.000  0.1544  0.5104  0.8460
              Bcc     0.0000     0.000     0.000     0.000  0.4280  0.7372 -0.5229
 
              Baa    -0.0000     0.000     0.000     0.000  0.9828 -0.0013  0.1847
    15 O(17)  Bbb     0.0000    -0.000    -0.000    -0.000 -0.1748 -0.3308  0.9274
              Bcc     0.0000    -0.000    -0.000    -0.000 -0.0599  0.9437  0.3253
 
              Baa    -0.0000    -0.000    -0.000    -0.000  0.4910  0.6559  0.5732
    16 H(1)   Bbb    -0.0000    -0.000    -0.000    -0.000 -0.5396 -0.2876  0.7913
              Bcc     0.0000     0.000     0.000     0.000 -0.6839  0.6979 -0.2127
 
              Baa    -0.0000    -0.000    -0.000    -0.000 -0.3943  0.7939  0.4629
    17 H(1)   Bbb    -0.0000    -0.000    -0.000    -0.000  0.4647 -0.2623  0.8457
              Bcc     0.0000     0.000     0.000     0.000  0.7928  0.5486 -0.2655
 

 ---------------------------------------------------------------------------------

 1\1\GINC-NODE31\SP\UB3LYP\6-31+G(d)\C8H8O1\YANZ\12-Oct-2023\0\\# ub3ly
 p/6-31+g(d)\\tmpdir/M3_ref_16.gjf\\0,1\C,0,0.33039499,0.70663737,-0.01
 689504\C,0,-1.07240839,1.28243937,0.02074375\C,0,-1.87263393,0.6539662
 4,-1.11889449\C,0,0.35803021,-0.69509548,-0.06228099\C,0,1.51456879,1.
 42595753,0.00431597\C,0,1.5691386,-1.37271489,-0.06897614\C,0,2.733973
 09,0.74492017,-0.01998226\H,0,1.49361496,2.51222136,0.0410451\C,0,2.76
 086323,-0.64577722,-0.05543502\H,0,1.58781592,-2.45944017,-0.09245997\
 H,0,3.66448683,1.30480451,-0.00921086\H,0,3.71236256,-1.16918432,-0.07
 323601\H,0,-1.60205949,0.84922693,0.89070546\H,0,-1.08734547,2.3742003
 ,0.00010213\O,0,-1.86003805,-0.52432998,-1.1329702\H,0,-2.4515713,1.26
 792245,-1.8013437\H,0,-0.64898759,-1.14630964,-0.03800929\\Version=ES6
 4L-G16RevA.03\State=1-A\HF=-384.861782\S2=0.\S2-1=0.\S2A=0.\RMSD=3.373
 e-09\Dipole=-0.2000904,0.8295457,0.0896494\Quadrupole=1.9467865,1.4431
 074,-3.3898939,-3.9491948,-0.6976064,-1.5407541\PG=C01 [X(C8H8O1)]\\@


 THE SCIENTIFIC THEORIST IS NOT TO BE ENVIED. FOR NATURE, OR MORE
 PRECISELY EXPERIMENT, IS AN INEXORABLE AND NOT VERY FRIENDLY JUDGE OF HIS
 WORK.  IT NEVER SAYS "YES" TO A THEORY. IN THE MOST FAVORABLE CASES
 IT SAYS "MAYBE", AND IN THE GREAT MAJORITY OF CASES SIMPLY "NO"...
 PROBABLY EVERY THEORY WILL SOME DAY EXPERIENCE ITS "NO" - MOST
 THEORIES, SOON AFTER CONCEPTION.  -- A.EINSTEIN, NOV 11, 1922.
 Job cpu time:       0 days  0 hours  4 minutes 38.3 seconds.
 Elapsed time:       0 days  0 hours  1 minutes 15.4 seconds.
 File lengths (MBytes):  RWF=     27 Int=      0 D2E=      0 Chk=      4 Scr=      1
 Normal termination of Gaussian 16 at Thu Oct 12 15:26:56 2023.
