 Entering Gaussian System, Link 0=g16
 Initial command:
 /share/apps/gaussian/g16/l1.exe "/tmp/58287.mgr/Gau-20434.inp" -scrdir="/tmp/58287.mgr/"
 Entering Link 1 = /share/apps/gaussian/g16/l1.exe PID=     20440.
  
 Copyright (c) 1988,1990,1992,1993,1995,1998,2003,2009,2016,
            Gaussian, Inc.  All Rights Reserved.
  
 This is part of the Gaussian(R) 16 program.  It is based on
 the Gaussian(R) 09 system (copyright 2009, Gaussian, Inc.),
 the Gaussian(R) 03 system (copyright 2003, Gaussian, Inc.),
 the Gaussian(R) 98 system (copyright 1998, Gaussian, Inc.),
 the Gaussian(R) 94 system (copyright 1995, Gaussian, Inc.),
 the Gaussian 92(TM) system (copyright 1992, Gaussian, Inc.),
 the Gaussian 90(TM) system (copyright 1990, Gaussian, Inc.),
 the Gaussian 88(TM) system (copyright 1988, Gaussian, Inc.),
 the Gaussian 86(TM) system (copyright 1986, Carnegie Mellon
 University), and the Gaussian 82(TM) system (copyright 1983,
 Carnegie Mellon University). Gaussian is a federally registered
 trademark of Gaussian, Inc.
  
 This software contains proprietary and confidential information,
 including trade secrets, belonging to Gaussian, Inc.
  
 This software is provided under written license and may be
 used, copied, transmitted, or stored only in accord with that
 written license.
  
 The following legend is applicable only to US Government
 contracts under FAR:
  
                    RESTRICTED RIGHTS LEGEND
  
 Use, reproduction and disclosure by the US Government is
 subject to restrictions as set forth in subparagraphs (a)
 and (c) of the Commercial Computer Software - Restricted
 Rights clause in FAR 52.227-19.
  
 Gaussian, Inc.
 340 Quinnipiac St., Bldg. 40, Wallingford CT 06492
  
  
 ---------------------------------------------------------------
 Warning -- This program may not be used in any manner that
 competes with the business of Gaussian, Inc. or will provide
 assistance to any competitor of Gaussian, Inc.  The licensee
 of this program is prohibited from giving any competitor of
 Gaussian, Inc. access to this program.  By using this program,
 the user acknowledges that Gaussian, Inc. is engaged in the
 business of creating and licensing software in the field of
 computational chemistry and represents and warrants to the
 licensee that it is not a competitor of Gaussian, Inc. and that
 it will not use this program in any manner prohibited above.
 ---------------------------------------------------------------
  

 Cite this work as:
 Gaussian 16, Revision A.03,
 M. J. Frisch, G. W. Trucks, H. B. Schlegel, G. E. Scuseria, 
 M. A. Robb, J. R. Cheeseman, G. Scalmani, V. Barone, 
 G. A. Petersson, H. Nakatsuji, X. Li, M. Caricato, A. V. Marenich, 
 J. Bloino, B. G. Janesko, R. Gomperts, B. Mennucci, H. P. Hratchian, 
 J. V. Ortiz, A. F. Izmaylov, J. L. Sonnenberg, D. Williams-Young, 
 F. Ding, F. Lipparini, F. Egidi, J. Goings, B. Peng, A. Petrone, 
 T. Henderson, D. Ranasinghe, V. G. Zakrzewski, J. Gao, N. Rega, 
 G. Zheng, W. Liang, M. Hada, M. Ehara, K. Toyota, R. Fukuda, 
 J. Hasegawa, M. Ishida, T. Nakajima, Y. Honda, O. Kitao, H. Nakai, 
 T. Vreven, K. Throssell, J. A. Montgomery, Jr., J. E. Peralta, 
 F. Ogliaro, M. J. Bearpark, J. J. Heyd, E. N. Brothers, K. N. Kudin, 
 V. N. Staroverov, T. A. Keith, R. Kobayashi, J. Normand, 
 K. Raghavachari, A. P. Rendell, J. C. Burant, S. S. Iyengar, 
 J. Tomasi, M. Cossi, J. M. Millam, M. Klene, C. Adamo, R. Cammi, 
 J. W. Ochterski, R. L. Martin, K. Morokuma, O. Farkas, 
 J. B. Foresman, and D. J. Fox, Gaussian, Inc., Wallingford CT, 2016.
 
 ******************************************
 Gaussian 16:  ES64L-G16RevA.03 25-Dec-2016
                12-Oct-2023 
 ******************************************
 %nprocshared=4
 Will use up to    4 processors via shared memory.
 %mem=4GB
 ------------------
 # ub3lyp/6-31+g(d)
 ------------------
 1/38=1,172=1/1;
 2/12=2,17=6,18=5,40=1/2;
 3/5=1,6=6,7=11,11=2,25=1,30=1,74=-5,116=2/1,2,3;
 4//1;
 5/5=2,38=5/2;
 6/7=2,8=2,9=2,10=2,28=1/1;
 99/5=1,9=1/99;
 -------------------
 tmpdir/M3_ref_0.gjf
 -------------------
 Symbolic Z-matrix:
 Charge =  0 Multiplicity = 1
 C                     0.35803  -0.6951   -0.06228 
 C                    -1.0331   -1.31842  -0.02875 
 C                     1.56914  -1.37271  -0.06898 
 C                     0.33039   0.70664  -0.0169 
 C                     2.76086  -0.64578  -0.05544 
 H                     1.58782  -2.45944  -0.09246 
 C                     1.51457   1.42596   0.00432 
 C                     2.73397   0.74492  -0.01998 
 H                     3.71236  -1.16918  -0.07324 
 H                     1.49361   2.51222   0.04105 
 H                     3.66449   1.3048   -0.00921 
 H                    -1.41478  -0.93071   0.93497 
 H                    -0.99836  -2.40914  -0.07674 
 H                    -1.63048  -0.85812  -0.82945 
 H                    -0.68507   1.12345   0.01035 
 
                          Input orientation:                          
 ---------------------------------------------------------------------
 Center     Atomic      Atomic             Coordinates (Angstroms)
 Number     Number       Type             X           Y           Z
 ---------------------------------------------------------------------
      1          6           0        0.358030   -0.695095   -0.062281
      2          6           0       -1.033097   -1.318418   -0.028751
      3          6           0        1.569139   -1.372715   -0.068976
      4          6           0        0.330395    0.706637   -0.016895
      5          6           0        2.760863   -0.645777   -0.055435
      6          1           0        1.587816   -2.459440   -0.092460
      7          6           0        1.514569    1.425958    0.004316
      8          6           0        2.733973    0.744920   -0.019982
      9          1           0        3.712363   -1.169184   -0.073236
     10          1           0        1.493615    2.512221    0.041045
     11          1           0        3.664487    1.304805   -0.009211
     12          1           0       -1.414779   -0.930713    0.934974
     13          1           0       -0.998356   -2.409144   -0.076742
     14          1           0       -1.630484   -0.858124   -0.829448
     15          1           0       -0.685075    1.123452    0.010351
 ---------------------------------------------------------------------
                    Distance matrix (angstroms):
                    1          2          3          4          5
     1  C    0.000000
     2  C    1.524759   0.000000
     3  C    1.387803   2.603113   0.000000
     4  C    1.402740   2.441332   2.420930   0.000000
     5  C    2.403349   3.853219   1.396005   2.781670   0.000000
     6  H    2.150859   2.859227   1.087139   3.407472   2.160274
     7  C    2.416792   3.744769   2.800164   1.385691   2.418451
     8  C    2.778586   4.295144   2.417358   2.403885   1.391409
     9  H    3.387687   4.748014   2.152871   3.867762   1.086104
    10  H    3.403984   4.589438   3.887228   2.148621   3.404142
    11  H    3.864592   5.380425   3.400466   3.387334   2.150219
    12  H    2.047654   1.106690   3.179158   2.575384   4.300940
    13  H    2.185854   1.092334   2.768804   3.387810   4.152306
    14  H    2.137595   1.099935   3.328769   2.636999   4.464092
    15  H    2.097727   2.466856   3.364316   1.098024   3.874144
                    6          7          8          9         10
     6  H    0.000000
     7  C    3.887293   0.000000
     8  C    3.403947   1.396907   0.000000
     9  H    2.485725   3.401628   2.150320   0.000000
    10  H    4.974346   1.087087   2.159992   4.299843   0.000000
    11  H    4.299887   2.153371   1.086021   2.475280   2.484566
    12  H    3.522528   3.873125   4.575132   5.230768   4.594743
    13  H    2.586709   4.585779   4.886883   4.871179   5.517575
    14  H    3.669444   3.975367   4.719478   5.405055   4.677283
    15  H    4.244257   2.220355   3.440072   4.959902   2.583856
                   11         12         13         14         15
    11  H    0.000000
    12  H    5.629206   0.000000
    13  H    5.961550   1.839222   0.000000
    14  H    5.778214   1.779040   1.836250   0.000000
    15  H    4.353385   2.367908   3.547530   2.350682   0.000000
 Stoichiometry    C7H8
 Framework group  C1[X(C7H8)]
 Deg. of freedom    39
 Full point group                 C1      NOp   1
 Largest Abelian subgroup         C1      NOp   1
 Largest concise Abelian subgroup C1      NOp   1
                         Standard orientation:                         
 ---------------------------------------------------------------------
 Center     Atomic      Atomic             Coordinates (Angstroms)
 Number     Number       Type             X           Y           Z
 ---------------------------------------------------------------------
      1          6           0        0.890038    0.106704   -0.026224
      2          6           0        2.412421    0.028993    0.008453
      3          6           0        0.119080    1.260486   -0.006055
      4          6           0        0.277652   -1.155235   -0.013126
      5          6           0       -1.272848    1.154181    0.002083
      6          1           0        0.596270    2.237297   -0.004536
      7          6           0       -1.104103   -1.258375    0.002782
      8          6           0       -1.880863   -0.097348    0.005510
      9          1           0       -1.882592    2.052972    0.005187
     10          1           0       -1.579082   -2.236136    0.014494
     11          1           0       -2.964192   -0.173484    0.012239
     12          1           0        2.574332   -0.513380    0.959442
     13          1           0        2.877169    1.017268   -0.014285
     14          1           0        2.737036   -0.632578   -0.808128
     15          1           0        0.992796   -1.988397   -0.004954
 ---------------------------------------------------------------------
 Rotational constants (GHZ):           5.4943327           2.5613998           1.7664970
 Standard basis: 6-31+G(d) (6D, 7F)
 There are   149 symmetry adapted cartesian basis functions of A   symmetry.
 There are   149 symmetry adapted basis functions of A   symmetry.
   149 basis functions,   256 primitive gaussians,   149 cartesian basis functions
    25 alpha electrons       25 beta electrons
       nuclear repulsion energy       269.6753800875 Hartrees.
 NAtoms=   15 NActive=   15 NUniq=   15 SFac= 1.00D+00 NAtFMM=   60 NAOKFM=F Big=F
 Integral buffers will be    131072 words long.
 Raffenetti 2 integral format.
 Two-electron integral symmetry is turned on.
 One-electron integrals computed using PRISM.
 NBasis=   149 RedAO= T EigKep=  5.01D-06  NBF=   149
 NBsUse=   149 1.00D-06 EigRej= -1.00D+00 NBFU=   149
 ExpMin= 4.38D-02 ExpMax= 3.05D+03 ExpMxC= 4.57D+02 IAcc=3 IRadAn=         5 AccDes= 0.00D+00
 Harris functional with IExCor=  402 and IRadAn=       5 diagonalized for initial guess.
 HarFok:  IExCor=  402 AccDes= 0.00D+00 IRadAn=         5 IDoV= 1 UseB2=F ITyADJ=14
 ICtDFT=  3500011 ScaDFX=  1.000000  1.000000  1.000000  1.000000
 FoFCou: FMM=F IPFlag=           0 FMFlag=      100000 FMFlg1=           0
         NFxFlg=           0 DoJE=T BraDBF=F KetDBF=T FulRan=T
         wScrn=  0.000000 ICntrl=       500 IOpCl=  0 I1Cent=   200000004 NGrid=           0
         NMat0=    1 NMatS0=      1 NMatT0=    0 NMatD0=    1 NMtDS0=    0 NMtDT0=    0
 Petite list used in FoFCou.
 Initial guess <Sx>= 0.0000 <Sy>= 0.0000 <Sz>= 0.0000 <S**2>=-0.0000 S=-0.0000
 Keep R1 and R2 ints in memory in canonical form, NReq=128793723.
 Requested convergence on RMS density matrix=1.00D-08 within 128 cycles.
 Requested convergence on MAX density matrix=1.00D-06.
 Requested convergence on             energy=1.00D-06.
 No special actions if energy rises.
 SCF Done:  E(UB3LYP) =  -271.568530208     A.U. after   12 cycles
            NFock= 12  Conv=0.62D-08     -V/T= 2.0099
 <Sx>= 0.0000 <Sy>= 0.0000 <Sz>= 0.0000 <S**2>=-0.0000 S=-0.0000
 <L.S>= 0.000000000000E+00
 Annihilation of the first spin contaminant:
 S**2 before annihilation    -0.0000,   after     0.0000

 **********************************************************************

            Population analysis using the SCF density.

 **********************************************************************

 Orbital symmetries:
 Alpha Orbitals:
       Occupied  (A) (A) (A) (A) (A) (A) (A) (A) (A) (A) (A) (A)
                 (A) (A) (A) (A) (A) (A) (A) (A) (A) (A) (A) (A)
                 (A)
       Virtual   (A) (A) (A) (A) (A) (A) (A) (A) (A) (A) (A) (A)
                 (A) (A) (A) (A) (A) (A) (A) (A) (A) (A) (A) (A)
                 (A) (A) (A) (A) (A) (A) (A) (A) (A) (A) (A) (A)
                 (A) (A) (A) (A) (A) (A) (A) (A) (A) (A) (A) (A)
                 (A) (A) (A) (A) (A) (A) (A) (A) (A) (A) (A) (A)
                 (A) (A) (A) (A) (A) (A) (A) (A) (A) (A) (A) (A)
                 (A) (A) (A) (A) (A) (A) (A) (A) (A) (A) (A) (A)
                 (A) (A) (A) (A) (A) (A) (A) (A) (A) (A) (A) (A)
                 (A) (A) (A) (A) (A) (A) (A) (A) (A) (A) (A) (A)
                 (A) (A) (A) (A) (A) (A) (A) (A) (A) (A) (A) (A)
                 (A) (A) (A) (A)
 Beta  Orbitals:
       Occupied  (A) (A) (A) (A) (A) (A) (A) (A) (A) (A) (A) (A)
                 (A) (A) (A) (A) (A) (A) (A) (A) (A) (A) (A) (A)
                 (A)
       Virtual   (A) (A) (A) (A) (A) (A) (A) (A) (A) (A) (A) (A)
                 (A) (A) (A) (A) (A) (A) (A) (A) (A) (A) (A) (A)
                 (A) (A) (A) (A) (A) (A) (A) (A) (A) (A) (A) (A)
                 (A) (A) (A) (A) (A) (A) (A) (A) (A) (A) (A) (A)
                 (A) (A) (A) (A) (A) (A) (A) (A) (A) (A) (A) (A)
                 (A) (A) (A) (A) (A) (A) (A) (A) (A) (A) (A) (A)
                 (A) (A) (A) (A) (A) (A) (A) (A) (A) (A) (A) (A)
                 (A) (A) (A) (A) (A) (A) (A) (A) (A) (A) (A) (A)
                 (A) (A) (A) (A) (A) (A) (A) (A) (A) (A) (A) (A)
                 (A) (A) (A) (A) (A) (A) (A) (A) (A) (A) (A) (A)
                 (A) (A) (A) (A)
 The electronic state is 1-A.
 Alpha  occ. eigenvalues --  -10.19941 -10.19480 -10.19388 -10.19127 -10.19105
 Alpha  occ. eigenvalues --  -10.19027 -10.18963  -0.86051  -0.77571  -0.74842
 Alpha  occ. eigenvalues --   -0.68560  -0.61007  -0.58263  -0.51285  -0.46497
 Alpha  occ. eigenvalues --   -0.45507  -0.42679  -0.42489  -0.40325  -0.39659
 Alpha  occ. eigenvalues --   -0.35675  -0.34545  -0.33655  -0.25581  -0.24260
 Alpha virt. eigenvalues --   -0.01462  -0.00592   0.00598   0.01990   0.02504
 Alpha virt. eigenvalues --    0.04275   0.04707   0.05091   0.06432   0.06908
 Alpha virt. eigenvalues --    0.07845   0.08207   0.08919   0.10256   0.12360
 Alpha virt. eigenvalues --    0.12627   0.12992   0.13415   0.14092   0.15514
 Alpha virt. eigenvalues --    0.16021   0.16734   0.17321   0.18057   0.19489
 Alpha virt. eigenvalues --    0.19837   0.21423   0.21582   0.21873   0.22918
 Alpha virt. eigenvalues --    0.23693   0.24045   0.24983   0.25731   0.26652
 Alpha virt. eigenvalues --    0.28018   0.28337   0.29892   0.31780   0.33484
 Alpha virt. eigenvalues --    0.34790   0.35675   0.37283   0.39569   0.55926
 Alpha virt. eigenvalues --    0.60198   0.64678   0.66900   0.67167   0.69169
 Alpha virt. eigenvalues --    0.71074   0.71893   0.72124   0.73643   0.74129
 Alpha virt. eigenvalues --    0.74807   0.76480   0.77334   0.78004   0.80982
 Alpha virt. eigenvalues --    0.82110   0.85882   0.89688   0.93029   0.93783
 Alpha virt. eigenvalues --    0.94563   0.96540   1.00799   1.02245   1.04563
 Alpha virt. eigenvalues --    1.08667   1.09128   1.13350   1.13989   1.16650
 Alpha virt. eigenvalues --    1.19281   1.21669   1.25762   1.31709   1.35964
 Alpha virt. eigenvalues --    1.42180   1.44048   1.45848   1.48218   1.49159
 Alpha virt. eigenvalues --    1.50105   1.50928   1.83094   1.84110   1.85043
 Alpha virt. eigenvalues --    1.90564   1.92010   1.94121   1.96092   1.99821
 Alpha virt. eigenvalues --    2.11369   2.12323   2.15188   2.15665   2.19719
 Alpha virt. eigenvalues --    2.20496   2.24717   2.30908   2.32018   2.34615
 Alpha virt. eigenvalues --    2.36985   2.39425   2.59645   2.61763   2.66138
 Alpha virt. eigenvalues --    2.74161   2.74947   2.75380   2.78493   2.90967
 Alpha virt. eigenvalues --    3.07166   3.41463   4.22738   4.24723   4.25682
 Alpha virt. eigenvalues --    4.31670   4.38488   4.44933   4.71417
  Beta  occ. eigenvalues --  -10.19941 -10.19480 -10.19388 -10.19127 -10.19105
  Beta  occ. eigenvalues --  -10.19027 -10.18963  -0.86051  -0.77571  -0.74842
  Beta  occ. eigenvalues --   -0.68560  -0.61007  -0.58263  -0.51285  -0.46497
  Beta  occ. eigenvalues --   -0.45507  -0.42679  -0.42489  -0.40325  -0.39659
  Beta  occ. eigenvalues --   -0.35675  -0.34545  -0.33655  -0.25581  -0.24260
  Beta virt. eigenvalues --   -0.01462  -0.00592   0.00598   0.01990   0.02504
  Beta virt. eigenvalues --    0.04275   0.04707   0.05091   0.06432   0.06908
  Beta virt. eigenvalues --    0.07845   0.08207   0.08919   0.10256   0.12360
  Beta virt. eigenvalues --    0.12627   0.12992   0.13415   0.14092   0.15514
  Beta virt. eigenvalues --    0.16021   0.16734   0.17321   0.18057   0.19489
  Beta virt. eigenvalues --    0.19837   0.21423   0.21582   0.21873   0.22918
  Beta virt. eigenvalues --    0.23693   0.24045   0.24983   0.25731   0.26652
  Beta virt. eigenvalues --    0.28018   0.28337   0.29892   0.31780   0.33484
  Beta virt. eigenvalues --    0.34790   0.35675   0.37283   0.39569   0.55926
  Beta virt. eigenvalues --    0.60198   0.64678   0.66900   0.67167   0.69169
  Beta virt. eigenvalues --    0.71074   0.71893   0.72124   0.73643   0.74129
  Beta virt. eigenvalues --    0.74807   0.76480   0.77334   0.78004   0.80982
  Beta virt. eigenvalues --    0.82110   0.85882   0.89688   0.93029   0.93783
  Beta virt. eigenvalues --    0.94563   0.96540   1.00799   1.02245   1.04563
  Beta virt. eigenvalues --    1.08667   1.09128   1.13350   1.13989   1.16650
  Beta virt. eigenvalues --    1.19281   1.21669   1.25762   1.31709   1.35964
  Beta virt. eigenvalues --    1.42180   1.44048   1.45848   1.48218   1.49159
  Beta virt. eigenvalues --    1.50105   1.50928   1.83094   1.84110   1.85043
  Beta virt. eigenvalues --    1.90564   1.92010   1.94121   1.96092   1.99821
  Beta virt. eigenvalues --    2.11369   2.12323   2.15188   2.15665   2.19719
  Beta virt. eigenvalues --    2.20496   2.24717   2.30908   2.32018   2.34615
  Beta virt. eigenvalues --    2.36985   2.39425   2.59645   2.61763   2.66138
  Beta virt. eigenvalues --    2.74161   2.74947   2.75380   2.78493   2.90967
  Beta virt. eigenvalues --    3.07166   3.41463   4.22738   4.24723   4.25682
  Beta virt. eigenvalues --    4.31670   4.38488   4.44933   4.71417
          Condensed to atoms (all electrons):
               1          2          3          4          5          6
     1  C    7.528626  -0.561561  -0.189229  -0.559007  -0.103167   0.026317
     2  C   -0.561561   6.050733   0.410909  -0.158651  -0.056337  -0.007447
     3  C   -0.189229   0.410909   7.950201  -2.416488   0.435104   0.227059
     4  C   -0.559007  -0.158651  -2.416488   8.800222  -0.077094   0.030765
     5  C   -0.103167  -0.056337   0.435104  -0.077094   5.310619   0.000414
     6  H    0.026317  -0.007447   0.227059   0.030765   0.000414   0.552877
     7  C    0.065563  -0.107458   0.235571  -0.169042  -0.144396  -0.012382
     8  C   -0.309920   0.040034  -0.107023   0.262441   0.535100   0.011641
     9  H    0.010450   0.000718  -0.007224  -0.004593   0.277729  -0.004762
    10  H    0.019513  -0.000036  -0.007616  -0.017667   0.010373   0.000019
    11  H    0.001825   0.000523   0.005447   0.005540   0.011620  -0.000159
    12  H   -0.138479   0.452851  -0.000364   0.017744  -0.009518   0.000082
    13  H   -0.118331   0.448319   0.018485  -0.004872   0.002096   0.003282
    14  H   -0.089280   0.411907   0.026410  -0.018431  -0.003998   0.000040
    15  H    0.000942   0.004719   0.068105   0.214288  -0.013782  -0.000186
               7          8          9         10         11         12
     1  C    0.065563  -0.309920   0.010450   0.019513   0.001825  -0.138479
     2  C   -0.107458   0.040034   0.000718  -0.000036   0.000523   0.452851
     3  C    0.235571  -0.107023  -0.007224  -0.007616   0.005447  -0.000364
     4  C   -0.169042   0.262441  -0.004593  -0.017667   0.005540   0.017744
     5  C   -0.144396   0.535100   0.277729   0.010373   0.011620  -0.009518
     6  H   -0.012382   0.011641  -0.004762   0.000019  -0.000159   0.000082
     7  C    5.623956   0.351454   0.004031   0.289722  -0.005844  -0.006483
     8  C    0.351454   5.093945   0.009548  -0.005044   0.273099   0.004842
     9  H    0.004031   0.009548   0.543108  -0.000164  -0.005184   0.000003
    10  H    0.289722  -0.005044  -0.000164   0.542819  -0.005091  -0.000003
    11  H   -0.005844   0.273099  -0.005184  -0.005091   0.543720   0.000000
    12  H   -0.006483   0.004842   0.000003  -0.000003   0.000000   0.511215
    13  H   -0.006691   0.001636  -0.000000   0.000003  -0.000000  -0.020653
    14  H   -0.001094   0.003504   0.000002  -0.000003   0.000000  -0.034206
    15  H   -0.015500   0.012204   0.000018  -0.003997  -0.000142   0.001083
              13         14         15
     1  C   -0.118331  -0.089280   0.000942
     2  C    0.448319   0.411907   0.004719
     3  C    0.018485   0.026410   0.068105
     4  C   -0.004872  -0.018431   0.214288
     5  C    0.002096  -0.003998  -0.013782
     6  H    0.003282   0.000040  -0.000186
     7  C   -0.006691  -0.001094  -0.015500
     8  C    0.001636   0.003504   0.012204
     9  H   -0.000000   0.000002   0.000018
    10  H    0.000003  -0.000003  -0.003997
    11  H   -0.000000   0.000000  -0.000142
    12  H   -0.020653  -0.034206   0.001083
    13  H    0.496177  -0.021009   0.000384
    14  H   -0.021009   0.501420   0.001374
    15  H    0.000384   0.001374   0.555876
          Atomic-Atomic Spin Densities.
               1          2          3          4          5          6
     1  C    0.000000   0.000000  -0.000000   0.000000  -0.000000   0.000000
     2  C    0.000000   0.000000   0.000000  -0.000000   0.000000  -0.000000
     3  C   -0.000000   0.000000   0.000000  -0.000000  -0.000000  -0.000000
     4  C    0.000000  -0.000000  -0.000000  -0.000000   0.000000   0.000000
     5  C   -0.000000   0.000000  -0.000000   0.000000   0.000000  -0.000000
     6  H    0.000000  -0.000000  -0.000000   0.000000  -0.000000   0.000000
     7  C   -0.000000   0.000000   0.000000   0.000000  -0.000000   0.000000
     8  C    0.000000  -0.000000   0.000000  -0.000000   0.000000  -0.000000
     9  H   -0.000000   0.000000   0.000000   0.000000  -0.000000  -0.000000
    10  H    0.000000  -0.000000  -0.000000  -0.000000   0.000000   0.000000
    11  H    0.000000  -0.000000  -0.000000   0.000000   0.000000   0.000000
    12  H    0.000000   0.000000  -0.000000  -0.000000   0.000000   0.000000
    13  H   -0.000000  -0.000000   0.000000  -0.000000   0.000000  -0.000000
    14  H   -0.000000   0.000000  -0.000000  -0.000000  -0.000000   0.000000
    15  H    0.000000   0.000000   0.000000  -0.000000  -0.000000  -0.000000
               7          8          9         10         11         12
     1  C   -0.000000   0.000000  -0.000000   0.000000   0.000000   0.000000
     2  C    0.000000  -0.000000   0.000000  -0.000000  -0.000000   0.000000
     3  C    0.000000   0.000000   0.000000  -0.000000  -0.000000  -0.000000
     4  C    0.000000  -0.000000   0.000000  -0.000000   0.000000  -0.000000
     5  C   -0.000000   0.000000  -0.000000   0.000000   0.000000   0.000000
     6  H    0.000000  -0.000000  -0.000000   0.000000   0.000000   0.000000
     7  C   -0.000000   0.000000  -0.000000   0.000000  -0.000000   0.000000
     8  C    0.000000  -0.000000   0.000000  -0.000000  -0.000000  -0.000000
     9  H   -0.000000   0.000000  -0.000000  -0.000000  -0.000000  -0.000000
    10  H    0.000000  -0.000000  -0.000000  -0.000000   0.000000  -0.000000
    11  H   -0.000000  -0.000000  -0.000000   0.000000   0.000000   0.000000
    12  H    0.000000  -0.000000  -0.000000  -0.000000   0.000000  -0.000000
    13  H   -0.000000   0.000000   0.000000   0.000000  -0.000000  -0.000000
    14  H   -0.000000   0.000000  -0.000000  -0.000000   0.000000  -0.000000
    15  H   -0.000000   0.000000   0.000000   0.000000   0.000000  -0.000000
              13         14         15
     1  C   -0.000000  -0.000000   0.000000
     2  C   -0.000000   0.000000   0.000000
     3  C    0.000000  -0.000000   0.000000
     4  C   -0.000000  -0.000000  -0.000000
     5  C    0.000000  -0.000000  -0.000000
     6  H   -0.000000   0.000000  -0.000000
     7  C   -0.000000  -0.000000  -0.000000
     8  C    0.000000   0.000000   0.000000
     9  H    0.000000  -0.000000   0.000000
    10  H    0.000000  -0.000000   0.000000
    11  H   -0.000000   0.000000   0.000000
    12  H   -0.000000  -0.000000  -0.000000
    13  H    0.000000  -0.000000   0.000000
    14  H   -0.000000  -0.000000  -0.000000
    15  H    0.000000  -0.000000   0.000000
 Mulliken charges and spin densities:
               1          2
     1  C    0.415738   0.000000
     2  C   -0.929222   0.000000
     3  C   -0.649346  -0.000000
     4  C    0.094846  -0.000000
     5  C   -0.174763   0.000000
     6  H    0.172440   0.000000
     7  C   -0.101407   0.000000
     8  C   -0.177461  -0.000000
     9  H    0.176317  -0.000000
    10  H    0.177172  -0.000000
    11  H    0.174647   0.000000
    12  H    0.221885  -0.000000
    13  H    0.201175   0.000000
    14  H    0.223364  -0.000000
    15  H    0.174613   0.000000
 Sum of Mulliken charges =  -0.00000   0.00000
 Mulliken charges and spin densities with hydrogens summed into heavy atoms:
               1          2
     1  C    0.415738   0.000000
     2  C   -0.282797   0.000000
     3  C   -0.476906  -0.000000
     4  C    0.269460  -0.000000
     5  C    0.001555   0.000000
     7  C    0.075765   0.000000
     8  C   -0.002814  -0.000000
 Electronic spatial extent (au):  <R**2>=            713.3895
 Charge=             -0.0000 electrons
 Dipole moment (field-independent basis, Debye):
    X=              0.3960    Y=             -0.0441    Z=              0.0491  Tot=              0.4014
 Quadrupole moment (field-independent basis, Debye-Ang):
   XX=            -39.4635   YY=            -39.2032   ZZ=            -46.5992
   XY=             -0.1622   XZ=             -0.1050   YZ=             -0.0223
 Traceless Quadrupole moment (field-independent basis, Debye-Ang):
   XX=              2.2918   YY=              2.5521   ZZ=             -4.8439
   XY=             -0.1622   XZ=             -0.1050   YZ=             -0.0223
 Octapole moment (field-independent basis, Debye-Ang**2):
  XXX=             -6.9406  YYY=              1.3723  ZZZ=              0.2959  XYY=             -0.3471
  XXY=             -0.1143  XXZ=             -0.5582  XZZ=              3.8815  YZZ=             -0.6844
  YYZ=              0.0157  XYZ=              0.1238
 Hexadecapole moment (field-independent basis, Debye-Ang**3):
 XXXX=           -626.8178 YYYY=           -299.5796 ZZZZ=            -65.3395 XXXY=              1.5755
 XXXZ=             -3.0844 YYYX=              1.9690 YYYZ=             -0.0921 ZZZX=              0.3667
 ZZZY=             -0.1602 XXYY=           -146.8279 XXZZ=           -122.9960 YYZZ=            -70.9334
 XXYZ=              0.3827 YYXZ=             -0.4514 ZZXY=             -1.7496
 N-N= 2.696753800875D+02 E-N=-1.167098900495D+03  KE= 2.688962286118D+02
                          Isotropic Fermi Contact Couplings
        Atom                 a.u.       MegaHertz       Gauss      10(-4) cm-1
     1  C(13)              0.00000       0.00000       0.00000       0.00000
     2  C(13)             -0.00000      -0.00000      -0.00000      -0.00000
     3  C(13)             -0.00000      -0.00000      -0.00000      -0.00000
     4  C(13)             -0.00000      -0.00000      -0.00000      -0.00000
     5  C(13)             -0.00000      -0.00000      -0.00000      -0.00000
     6  H(1)               0.00000       0.00000       0.00000       0.00000
     7  C(13)              0.00000       0.00000       0.00000       0.00000
     8  C(13)              0.00000       0.00000       0.00000       0.00000
     9  H(1)              -0.00000      -0.00000      -0.00000      -0.00000
    10  H(1)              -0.00000      -0.00000      -0.00000      -0.00000
    11  H(1)               0.00000       0.00000       0.00000       0.00000
    12  H(1)               0.00000       0.00000       0.00000       0.00000
    13  H(1)              -0.00000      -0.00000      -0.00000      -0.00000
    14  H(1)               0.00000       0.00000       0.00000       0.00000
    15  H(1)               0.00000       0.00000       0.00000       0.00000
 --------------------------------------------------------
       Center         ----  Spin Dipole Couplings  ----
                      3XX-RR        3YY-RR        3ZZ-RR
 --------------------------------------------------------
     1   Atom       -0.000000      0.000000      0.000000
     2   Atom       -0.000000      0.000000      0.000000
     3   Atom        0.000000     -0.000000     -0.000000
     4   Atom        0.000000      0.000000     -0.000000
     5   Atom       -0.000000     -0.000000      0.000000
     6   Atom        0.000000     -0.000000     -0.000000
     7   Atom       -0.000000     -0.000000      0.000000
     8   Atom        0.000000     -0.000000     -0.000000
     9   Atom        0.000000      0.000000     -0.000000
    10   Atom       -0.000000      0.000000      0.000000
    11   Atom        0.000000     -0.000000     -0.000000
    12   Atom        0.000000      0.000000     -0.000000
    13   Atom       -0.000000     -0.000000      0.000000
    14   Atom        0.000000      0.000000     -0.000000
    15   Atom        0.000000     -0.000000      0.000000
 --------------------------------------------------------
                        XY            XZ            YZ
 --------------------------------------------------------
     1   Atom        0.000000     -0.000000      0.000000
     2   Atom       -0.000000     -0.000000     -0.000000
     3   Atom       -0.000000     -0.000000      0.000000
     4   Atom       -0.000000      0.000000      0.000000
     5   Atom        0.000000      0.000000     -0.000000
     6   Atom       -0.000000     -0.000000      0.000000
     7   Atom       -0.000000      0.000000     -0.000000
     8   Atom       -0.000000     -0.000000      0.000000
     9   Atom       -0.000000     -0.000000      0.000000
    10   Atom        0.000000      0.000000      0.000000
    11   Atom        0.000000      0.000000     -0.000000
    12   Atom        0.000000     -0.000000      0.000000
    13   Atom       -0.000000      0.000000      0.000000
    14   Atom        0.000000      0.000000     -0.000000
    15   Atom        0.000000      0.000000     -0.000000
 --------------------------------------------------------


 ---------------------------------------------------------------------------------
              Anisotropic Spin Dipole Couplings in Principal Axis System
 ---------------------------------------------------------------------------------

       Atom             a.u.   MegaHertz   Gauss  10(-4) cm-1        Axes

              Baa    -0.0000    -0.000    -0.000    -0.000  0.9816 -0.1598  0.1047
     1 C(13)  Bbb     0.0000     0.000     0.000     0.000  0.1639  0.9859 -0.0322
              Bcc     0.0000     0.000     0.000     0.000 -0.0981  0.0488  0.9940
 
              Baa    -0.0000    -0.000    -0.000    -0.000  0.8948  0.3113  0.3200
     2 C(13)  Bbb     0.0000     0.000     0.000     0.000 -0.4429  0.5286  0.7242
              Bcc     0.0000     0.000     0.000     0.000 -0.0562  0.7897 -0.6109
 
              Baa    -0.0000    -0.000    -0.000    -0.000  0.0842 -0.0257  0.9961
     3 C(13)  Bbb    -0.0000    -0.000    -0.000    -0.000  0.0725  0.9972  0.0196
              Bcc     0.0000     0.000     0.000     0.000  0.9938 -0.0706 -0.0858
 
              Baa    -0.0000    -0.000    -0.000    -0.000 -0.0559 -0.0940  0.9940
     4 C(13)  Bbb     0.0000     0.000     0.000     0.000  0.2601  0.9598  0.1054
              Bcc     0.0000     0.000     0.000     0.000  0.9640 -0.2644  0.0293
 
              Baa    -0.0000    -0.000    -0.000    -0.000  0.7227 -0.6851 -0.0906
     5 C(13)  Bbb    -0.0000    -0.000    -0.000    -0.000  0.6910  0.7136  0.1158
              Bcc     0.0000     0.000     0.000     0.000 -0.0147 -0.1463  0.9891
 
              Baa    -0.0000    -0.000    -0.000    -0.000  0.5112  0.8577 -0.0545
     6 H(1)   Bbb    -0.0000    -0.000    -0.000    -0.000  0.0719  0.0205  0.9972
              Bcc     0.0000     0.000     0.000     0.000  0.8564 -0.5137 -0.0512
 
              Baa    -0.0000    -0.000    -0.000    -0.000  0.0018  0.9996  0.0282
     7 C(13)  Bbb    -0.0000    -0.000    -0.000    -0.000  0.9975  0.0002 -0.0714
              Bcc     0.0000     0.000     0.000     0.000  0.0713 -0.0283  0.9971
 
              Baa    -0.0000    -0.000    -0.000    -0.000  0.0277 -0.0469  0.9985
     8 C(13)  Bbb     0.0000     0.000     0.000     0.000  0.0089  0.9989  0.0467
              Bcc     0.0000     0.000     0.000     0.000  0.9996 -0.0075 -0.0281
 
              Baa    -0.0000    -0.000    -0.000    -0.000  0.6801  0.7256 -0.1047
     9 H(1)   Bbb    -0.0000    -0.000    -0.000    -0.000  0.1254  0.0255  0.9918
              Bcc     0.0000     0.000     0.000     0.000  0.7223 -0.6876 -0.0737
 
              Baa    -0.0000    -0.000    -0.000    -0.000  0.9668 -0.2554 -0.0072
    10 H(1)   Bbb     0.0000     0.000     0.000     0.000 -0.0922 -0.3750  0.9224
              Bcc     0.0000     0.000     0.000     0.000  0.2383  0.8912  0.3861
 
              Baa    -0.0000    -0.000    -0.000    -0.000 -0.0871  0.0756  0.9933
    11 H(1)   Bbb    -0.0000    -0.000    -0.000    -0.000 -0.3296  0.9388 -0.1003
              Bcc     0.0000     0.000     0.000     0.000  0.9401  0.3362  0.0569
 
              Baa    -0.0000    -0.000    -0.000    -0.000  0.2632 -0.3188  0.9106
    12 H(1)   Bbb     0.0000     0.000     0.000     0.000  0.3156  0.9203  0.2310
              Bcc     0.0000     0.000     0.000     0.000  0.9117 -0.2266 -0.3428
 
              Baa    -0.0000    -0.000    -0.000    -0.000  0.6688  0.6467 -0.3667
    13 H(1)   Bbb     0.0000     0.000     0.000     0.000  0.3736  0.1341  0.9178
              Bcc     0.0000     0.000     0.000     0.000 -0.6427  0.7509  0.1519
 
              Baa    -0.0000    -0.000    -0.000    -0.000 -0.3625  0.3101  0.8789
    14 H(1)   Bbb     0.0000     0.000     0.000     0.000  0.9233  0.2479  0.2934
              Bcc     0.0000     0.000     0.000     0.000 -0.1269  0.9178 -0.3762
 
              Baa    -0.0000    -0.000    -0.000    -0.000 -0.6481  0.7370  0.1917
    15 H(1)   Bbb     0.0000     0.000     0.000     0.000 -0.0148 -0.2638  0.9645
              Bcc     0.0000     0.000     0.000     0.000  0.7614  0.6222  0.1818
 

 ---------------------------------------------------------------------------------

 1\1\GINC-NODE31\SP\UB3LYP\6-31+G(d)\C7H8\YANZ\12-Oct-2023\0\\# ub3lyp/
 6-31+g(d)\\tmpdir/M3_ref_0.gjf\\0,1\C,0,0.35803021,-0.69509548,-0.0622
 8099\C,0,-1.0330974,-1.3184176,-0.02875126\C,0,1.5691386,-1.37271489,-
 0.06897614\C,0,0.33039499,0.70663737,-0.01689504\C,0,2.76086323,-0.645
 77722,-0.05543502\H,0,1.58781592,-2.45944017,-0.09245997\C,0,1.5145687
 9,1.42595753,0.00431597\C,0,2.73397309,0.74492017,-0.01998226\H,0,3.71
 236256,-1.16918432,-0.07323601\H,0,1.49361496,2.51222136,0.0410451\H,0
 ,3.66448683,1.30480451,-0.00921086\H,0,-1.41477893,-0.93071278,0.93497
 418\H,0,-0.99835638,-2.40914399,-0.07674181\H,0,-1.63048379,-0.8581236
 8,-0.82944811\H,0,-0.68507474,1.12345238,0.01035115\\Version=ES64L-G16
 RevA.03\State=1-A\HF=-271.5685302\S2=0.\S2-1=0.\S2A=0.\RMSD=6.189e-09\
 Dipole=-0.1464874,-0.0557622,0.0194165\Quadrupole=1.8421503,1.7546798,
 -3.5968301,-0.1488835,0.0074774,0.1739949\PG=C01 [X(C7H8)]\\@


 SLITHERY-DITHERY
 FRIEDRICH A. KEKULE
 DREAMT ON A BUS OF THINGS
 FREUD WOULD THINK KEEN.
 MOST OF THE TIME THEY WERE
 HERPETOLOGICAL
 BITING THEIR TAILS IN THE
 SHAPE OF BENZENE.
 Job cpu time:       0 days  0 hours  2 minutes 48.5 seconds.
 Elapsed time:       0 days  0 hours  0 minutes 45.1 seconds.
 File lengths (MBytes):  RWF=     20 Int=      0 D2E=      0 Chk=      3 Scr=      1
 Normal termination of Gaussian 16 at Thu Oct 12 15:24:05 2023.
