 Entering Gaussian System, Link 0=g16
 Initial command:
 /share/apps/gaussian/g16/l1.exe "/tmp/58287.mgr/Gau-20578.inp" -scrdir="/tmp/58287.mgr/"
 Entering Link 1 = /share/apps/gaussian/g16/l1.exe PID=     20579.
  
 Copyright (c) 1988,1990,1992,1993,1995,1998,2003,2009,2016,
            Gaussian, Inc.  All Rights Reserved.
  
 This is part of the Gaussian(R) 16 program.  It is based on
 the Gaussian(R) 09 system (copyright 2009, Gaussian, Inc.),
 the Gaussian(R) 03 system (copyright 2003, Gaussian, Inc.),
 the Gaussian(R) 98 system (copyright 1998, Gaussian, Inc.),
 the Gaussian(R) 94 system (copyright 1995, Gaussian, Inc.),
 the Gaussian 92(TM) system (copyright 1992, Gaussian, Inc.),
 the Gaussian 90(TM) system (copyright 1990, Gaussian, Inc.),
 the Gaussian 88(TM) system (copyright 1988, Gaussian, Inc.),
 the Gaussian 86(TM) system (copyright 1986, Carnegie Mellon
 University), and the Gaussian 82(TM) system (copyright 1983,
 Carnegie Mellon University). Gaussian is a federally registered
 trademark of Gaussian, Inc.
  
 This software contains proprietary and confidential information,
 including trade secrets, belonging to Gaussian, Inc.
  
 This software is provided under written license and may be
 used, copied, transmitted, or stored only in accord with that
 written license.
  
 The following legend is applicable only to US Government
 contracts under FAR:
  
                    RESTRICTED RIGHTS LEGEND
  
 Use, reproduction and disclosure by the US Government is
 subject to restrictions as set forth in subparagraphs (a)
 and (c) of the Commercial Computer Software - Restricted
 Rights clause in FAR 52.227-19.
  
 Gaussian, Inc.
 340 Quinnipiac St., Bldg. 40, Wallingford CT 06492
  
  
 ---------------------------------------------------------------
 Warning -- This program may not be used in any manner that
 competes with the business of Gaussian, Inc. or will provide
 assistance to any competitor of Gaussian, Inc.  The licensee
 of this program is prohibited from giving any competitor of
 Gaussian, Inc. access to this program.  By using this program,
 the user acknowledges that Gaussian, Inc. is engaged in the
 business of creating and licensing software in the field of
 computational chemistry and represents and warrants to the
 licensee that it is not a competitor of Gaussian, Inc. and that
 it will not use this program in any manner prohibited above.
 ---------------------------------------------------------------
  

 Cite this work as:
 Gaussian 16, Revision A.03,
 M. J. Frisch, G. W. Trucks, H. B. Schlegel, G. E. Scuseria, 
 M. A. Robb, J. R. Cheeseman, G. Scalmani, V. Barone, 
 G. A. Petersson, H. Nakatsuji, X. Li, M. Caricato, A. V. Marenich, 
 J. Bloino, B. G. Janesko, R. Gomperts, B. Mennucci, H. P. Hratchian, 
 J. V. Ortiz, A. F. Izmaylov, J. L. Sonnenberg, D. Williams-Young, 
 F. Ding, F. Lipparini, F. Egidi, J. Goings, B. Peng, A. Petrone, 
 T. Henderson, D. Ranasinghe, V. G. Zakrzewski, J. Gao, N. Rega, 
 G. Zheng, W. Liang, M. Hada, M. Ehara, K. Toyota, R. Fukuda, 
 J. Hasegawa, M. Ishida, T. Nakajima, Y. Honda, O. Kitao, H. Nakai, 
 T. Vreven, K. Throssell, J. A. Montgomery, Jr., J. E. Peralta, 
 F. Ogliaro, M. J. Bearpark, J. J. Heyd, E. N. Brothers, K. N. Kudin, 
 V. N. Staroverov, T. A. Keith, R. Kobayashi, J. Normand, 
 K. Raghavachari, A. P. Rendell, J. C. Burant, S. S. Iyengar, 
 J. Tomasi, M. Cossi, J. M. Millam, M. Klene, C. Adamo, R. Cammi, 
 J. W. Ochterski, R. L. Martin, K. Morokuma, O. Farkas, 
 J. B. Foresman, and D. J. Fox, Gaussian, Inc., Wallingford CT, 2016.
 
 ******************************************
 Gaussian 16:  ES64L-G16RevA.03 25-Dec-2016
                12-Oct-2023 
 ******************************************
 %nprocshared=4
 Will use up to    4 processors via shared memory.
 %mem=4GB
 ------------------
 # ub3lyp/6-31+g(d)
 ------------------
 1/38=1,172=1/1;
 2/12=2,17=6,18=5,40=1/2;
 3/5=1,6=6,7=11,11=2,25=1,30=1,74=-5,116=2/1,2,3;
 4//1;
 5/5=2,38=5/2;
 6/7=2,8=2,9=2,10=2,28=1/1;
 99/5=1,9=1/99;
 -------------------
 tmpdir/M3_ref_5.gjf
 -------------------
 Symbolic Z-matrix:
 Charge =  0 Multiplicity = 2
 C                     0.35803  -0.6951   -0.06228 
 C                    -1.0331   -1.31842  -0.02875 
 C                    -1.56036  -0.78283   1.30257 
 C                     1.56914  -1.37271  -0.06898 
 C                     0.33039   0.70664  -0.0169 
 C                     2.76086  -0.64578  -0.05544 
 H                     1.58782  -2.45944  -0.09246 
 C                     1.51457   1.42596   0.00432 
 C                     2.73397   0.74492  -0.01998 
 H                     3.71236  -1.16918  -0.07324 
 H                     1.49361   2.51222   0.04105 
 H                     3.66449   1.3048   -0.00921 
 H                    -0.99836  -2.40914  -0.07674 
 H                    -1.63048  -0.85812  -0.82945 
 H                    -1.73679   0.27898   1.24464 
 H                    -1.10669  -1.20451   2.20001 
 H                    -0.68507   1.12345   0.01035 
 
                          Input orientation:                          
 ---------------------------------------------------------------------
 Center     Atomic      Atomic             Coordinates (Angstroms)
 Number     Number       Type             X           Y           Z
 ---------------------------------------------------------------------
      1          6           0        0.358030   -0.695095   -0.062281
      2          6           0       -1.033097   -1.318418   -0.028751
      3          6           0       -1.560365   -0.782829    1.302571
      4          6           0        1.569139   -1.372715   -0.068976
      5          6           0        0.330395    0.706637   -0.016895
      6          6           0        2.760863   -0.645777   -0.055435
      7          1           0        1.587816   -2.459440   -0.092460
      8          6           0        1.514569    1.425958    0.004316
      9          6           0        2.733973    0.744920   -0.019982
     10          1           0        3.712363   -1.169184   -0.073236
     11          1           0        1.493615    2.512221    0.041045
     12          1           0        3.664487    1.304805   -0.009211
     13          1           0       -0.998356   -2.409144   -0.076742
     14          1           0       -1.630484   -0.858124   -0.829448
     15          1           0       -1.736791    0.278977    1.244636
     16          1           0       -1.106686   -1.204513    2.200013
     17          1           0       -0.685075    1.123452    0.010351
 ---------------------------------------------------------------------
                    Distance matrix (angstroms):
                    1          2          3          4          5
     1  C    0.000000
     2  C    1.524759   0.000000
     3  C    2.356005   1.528818   0.000000
     4  C    1.387803   2.603113   3.467405   0.000000
     5  C    1.402740   2.441332   2.744900   2.420930   0.000000
     6  C    2.403349   3.853219   4.531664   1.396005   2.781670
     7  H    2.150859   2.859227   3.829906   1.087139   3.407472
     8  C    2.416792   3.744769   4.002427   2.800164   1.385691
     9  C    2.778586   4.295144   4.745999   2.417358   2.403885
    10  H    3.387687   4.748014   5.462945   2.152871   3.867762
    11  H    3.403984   4.589438   4.666433   3.887228   2.148621
    12  H    3.864592   5.380425   5.777375   3.400466   3.387334
    13  H    2.185854   1.092334   2.205279   2.768804   3.387810
    14  H    2.137595   1.099935   2.134500   3.328769   2.636999
    15  H    2.654266   2.160641   1.077922   3.922096   2.459189
    16  H    2.742786   2.232886   1.090433   3.512356   3.260733
    17  H    2.097727   2.466856   2.463712   3.364316   1.098024
                    6          7          8          9         10
     6  C    0.000000
     7  H    2.160274   0.000000
     8  C    2.418451   3.887293   0.000000
     9  C    1.391409   3.403947   1.396907   0.000000
    10  H    1.086104   2.485725   3.401628   2.150320   0.000000
    11  H    3.404142   4.974346   1.087087   2.159992   4.299843
    12  H    2.150219   4.299887   2.153371   1.086021   2.475280
    13  H    4.152306   2.586709   4.585779   4.886883   4.871179
    14  H    4.464092   3.669444   3.975367   4.719478   5.405055
    15  H    4.772237   4.509963   3.664055   4.669485   5.790271
    16  H    4.511892   3.753747   4.314098   4.845548   5.328428
    17  H    3.874144   4.244257   2.220355   3.440072   4.959902
                   11         12         13         14         15
    11  H    0.000000
    12  H    2.484566   0.000000
    13  H    5.517575   5.961550   0.000000
    14  H    4.677283   5.778214   1.836250   0.000000
    15  H    4.107497   5.638994   3.085016   2.367726   0.000000
    16  H    5.023626   5.825928   2.578078   3.093862   1.873638
    17  H    2.583856   4.353385   3.547530   2.350682   1.828306
                   16         17
    16  H    0.000000
    17  H    3.223631   0.000000
 Stoichiometry    C8H9(2)
 Framework group  C1[X(C8H9)]
 Deg. of freedom    45
 Full point group                 C1      NOp   1
 Largest Abelian subgroup         C1      NOp   1
 Largest concise Abelian subgroup C1      NOp   1
                         Standard orientation:                         
 ---------------------------------------------------------------------
 Center     Atomic      Atomic             Coordinates (Angstroms)
 Number     Number       Type             X           Y           Z
 ---------------------------------------------------------------------
      1          6           0        0.501177    0.302875   -0.272139
      2          6           0        2.006071    0.443828   -0.472928
      3          6           0        2.535097   -0.360705    0.714567
      4          6           0       -0.401103    1.328286   -0.026336
      5          6           0        0.069916   -1.031820   -0.288907
      6          6           0       -1.747336    1.021456    0.179430
      7          1           0       -0.062302    2.361007   -0.002358
      8          6           0       -1.265530   -1.334634   -0.076710
      9          6           0       -2.177249   -0.301617    0.153491
     10          1           0       -2.461213    1.819857    0.359873
     11          1           0       -1.599910   -2.368954   -0.088090
     12          1           0       -3.225817   -0.533938    0.314660
     13          1           0        2.327284    1.487862   -0.469861
     14          1           0        2.278700   -0.101314   -1.388542
     15          1           0        2.337936   -1.412159    0.582321
     16          1           0        2.398971    0.092677    1.696889
     17          1           0        0.880092   -1.751057   -0.467701
 ---------------------------------------------------------------------
 Rotational constants (GHZ):           4.4519624           1.6714884           1.3255823
 Standard basis: 6-31+G(d) (6D, 7F)
 There are   170 symmetry adapted cartesian basis functions of A   symmetry.
 There are   170 symmetry adapted basis functions of A   symmetry.
   170 basis functions,   292 primitive gaussians,   170 cartesian basis functions
    29 alpha electrons       28 beta electrons
       nuclear repulsion energy       334.0807867581 Hartrees.
 NAtoms=   17 NActive=   17 NUniq=   17 SFac= 1.00D+00 NAtFMM=   60 NAOKFM=F Big=F
 Integral buffers will be    131072 words long.
 Raffenetti 2 integral format.
 Two-electron integral symmetry is turned on.
 One-electron integrals computed using PRISM.
 NBasis=   170 RedAO= T EigKep=  4.55D-06  NBF=   170
 NBsUse=   170 1.00D-06 EigRej= -1.00D+00 NBFU=   170
 ExpMin= 4.38D-02 ExpMax= 3.05D+03 ExpMxC= 4.57D+02 IAcc=3 IRadAn=         5 AccDes= 0.00D+00
 Harris functional with IExCor=  402 and IRadAn=       5 diagonalized for initial guess.
 HarFok:  IExCor=  402 AccDes= 0.00D+00 IRadAn=         5 IDoV= 1 UseB2=F ITyADJ=14
 ICtDFT=  3500011 ScaDFX=  1.000000  1.000000  1.000000  1.000000
 FoFCou: FMM=F IPFlag=           0 FMFlag=      100000 FMFlg1=           0
         NFxFlg=           0 DoJE=T BraDBF=F KetDBF=T FulRan=T
         wScrn=  0.000000 ICntrl=       500 IOpCl=  0 I1Cent=   200000004 NGrid=           0
         NMat0=    1 NMatS0=      1 NMatT0=    0 NMatD0=    1 NMtDS0=    0 NMtDT0=    0
 Petite list used in FoFCou.
 Initial guess <Sx>= 0.0000 <Sy>= 0.0000 <Sz>= 0.5000 <S**2>= 0.7500 S= 0.5000
 Keep R1 and R2 ints in memory in canonical form, NReq=215266213.
 Requested convergence on RMS density matrix=1.00D-08 within 128 cycles.
 Requested convergence on MAX density matrix=1.00D-06.
 Requested convergence on             energy=1.00D-06.
 No special actions if energy rises.
 SCF Done:  E(UB3LYP) =  -310.201553936     A.U. after   17 cycles
            NFock= 17  Conv=0.55D-08     -V/T= 2.0097
 <Sx>= 0.0000 <Sy>= 0.0000 <Sz>= 0.5000 <S**2>= 0.7539 S= 0.5019
 <L.S>= 0.000000000000E+00
 Annihilation of the first spin contaminant:
 S**2 before annihilation     0.7539,   after     0.7500

 **********************************************************************

            Population analysis using the SCF density.

 **********************************************************************

 Orbital symmetries:
 Alpha Orbitals:
       Occupied  (A) (A) (A) (A) (A) (A) (A) (A) (A) (A) (A) (A)
                 (A) (A) (A) (A) (A) (A) (A) (A) (A) (A) (A) (A)
                 (A) (A) (A) (A) (A)
       Virtual   (A) (A) (A) (A) (A) (A) (A) (A) (A) (A) (A) (A)
                 (A) (A) (A) (A) (A) (A) (A) (A) (A) (A) (A) (A)
                 (A) (A) (A) (A) (A) (A) (A) (A) (A) (A) (A) (A)
                 (A) (A) (A) (A) (A) (A) (A) (A) (A) (A) (A) (A)
                 (A) (A) (A) (A) (A) (A) (A) (A) (A) (A) (A) (A)
                 (A) (A) (A) (A) (A) (A) (A) (A) (A) (A) (A) (A)
                 (A) (A) (A) (A) (A) (A) (A) (A) (A) (A) (A) (A)
                 (A) (A) (A) (A) (A) (A) (A) (A) (A) (A) (A) (A)
                 (A) (A) (A) (A) (A) (A) (A) (A) (A) (A) (A) (A)
                 (A) (A) (A) (A) (A) (A) (A) (A) (A) (A) (A) (A)
                 (A) (A) (A) (A) (A) (A) (A) (A) (A) (A) (A) (A)
                 (A) (A) (A) (A) (A) (A) (A) (A) (A)
 Beta  Orbitals:
       Occupied  (A) (A) (A) (A) (A) (A) (A) (A) (A) (A) (A) (A)
                 (A) (A) (A) (A) (A) (A) (A) (A) (A) (A) (A) (A)
                 (A) (A) (A) (A)
       Virtual   (A) (A) (A) (A) (A) (A) (A) (A) (A) (A) (A) (A)
                 (A) (A) (A) (A) (A) (A) (A) (A) (A) (A) (A) (A)
                 (A) (A) (A) (A) (A) (A) (A) (A) (A) (A) (A) (A)
                 (A) (A) (A) (A) (A) (A) (A) (A) (A) (A) (A) (A)
                 (A) (A) (A) (A) (A) (A) (A) (A) (A) (A) (A) (A)
                 (A) (A) (A) (A) (A) (A) (A) (A) (A) (A) (A) (A)
                 (A) (A) (A) (A) (A) (A) (A) (A) (A) (A) (A) (A)
                 (A) (A) (A) (A) (A) (A) (A) (A) (A) (A) (A) (A)
                 (A) (A) (A) (A) (A) (A) (A) (A) (A) (A) (A) (A)
                 (A) (A) (A) (A) (A) (A) (A) (A) (A) (A) (A) (A)
                 (A) (A) (A) (A) (A) (A) (A) (A) (A) (A) (A) (A)
                 (A) (A) (A) (A) (A) (A) (A) (A) (A) (A)
 The electronic state is 2-A.
 Alpha  occ. eigenvalues --  -10.20548 -10.20078 -10.20036 -10.19833 -10.19806
 Alpha  occ. eigenvalues --  -10.19612 -10.19575 -10.19534  -0.86914  -0.80047
 Alpha  occ. eigenvalues --   -0.75373  -0.72011  -0.63028  -0.61406  -0.58074
 Alpha  occ. eigenvalues --   -0.52108  -0.48307  -0.46260  -0.44184  -0.42487
 Alpha  occ. eigenvalues --   -0.41846  -0.39740  -0.38240  -0.36006  -0.34911
 Alpha  occ. eigenvalues --   -0.34267  -0.26237  -0.25945  -0.20575
 Alpha virt. eigenvalues --   -0.01815  -0.00911   0.00383   0.01932   0.02120
 Alpha virt. eigenvalues --    0.03318   0.04058   0.04484   0.05738   0.06536
 Alpha virt. eigenvalues --    0.07137   0.07387   0.07702   0.09607   0.10517
 Alpha virt. eigenvalues --    0.11108   0.11641   0.12453   0.12880   0.13905
 Alpha virt. eigenvalues --    0.14139   0.15670   0.16056   0.16329   0.17039
 Alpha virt. eigenvalues --    0.17403   0.18042   0.19038   0.19477   0.21183
 Alpha virt. eigenvalues --    0.21349   0.22230   0.22859   0.23496   0.24263
 Alpha virt. eigenvalues --    0.24669   0.24819   0.26198   0.26296   0.27636
 Alpha virt. eigenvalues --    0.27996   0.29324   0.29884   0.31706   0.33449
 Alpha virt. eigenvalues --    0.34223   0.35009   0.35525   0.38905   0.40841
 Alpha virt. eigenvalues --    0.55851   0.60097   0.62820   0.64004   0.67181
 Alpha virt. eigenvalues --    0.67979   0.68496   0.69681   0.71688   0.72350
 Alpha virt. eigenvalues --    0.73102   0.74487   0.74498   0.75656   0.77464
 Alpha virt. eigenvalues --    0.78531   0.79775   0.81199   0.82231   0.88840
 Alpha virt. eigenvalues --    0.89464   0.92401   0.93197   0.94130   0.96696
 Alpha virt. eigenvalues --    0.98760   1.00724   1.01313   1.04603   1.06422
 Alpha virt. eigenvalues --    1.08447   1.10521   1.12379   1.14453   1.16137
 Alpha virt. eigenvalues --    1.20513   1.22473   1.24572   1.30664   1.32097
 Alpha virt. eigenvalues --    1.38363   1.42993   1.44142   1.47015   1.48104
 Alpha virt. eigenvalues --    1.49110   1.50513   1.51055   1.74091   1.75432
 Alpha virt. eigenvalues --    1.78702   1.82939   1.85670   1.91584   1.95177
 Alpha virt. eigenvalues --    1.96777   1.98896   2.00250   2.05146   2.10960
 Alpha virt. eigenvalues --    2.12152   2.15321   2.15611   2.18611   2.19360
 Alpha virt. eigenvalues --    2.25601   2.29605   2.30909   2.32136   2.37051
 Alpha virt. eigenvalues --    2.38424   2.44254   2.57917   2.61327   2.64831
 Alpha virt. eigenvalues --    2.66687   2.74184   2.75019   2.75647   2.78727
 Alpha virt. eigenvalues --    2.92437   3.07460   3.41075   4.20354   4.24125
 Alpha virt. eigenvalues --    4.24608   4.29234   4.37066   4.40834   4.49420
 Alpha virt. eigenvalues --    4.71888
  Beta  occ. eigenvalues --  -10.20444 -10.20080 -10.19844 -10.19811 -10.19570
  Beta  occ. eigenvalues --  -10.19538 -10.19493 -10.18711  -0.86737  -0.79388
  Beta  occ. eigenvalues --   -0.75302  -0.71095  -0.62053  -0.60643  -0.57565
  Beta  occ. eigenvalues --   -0.51982  -0.48015  -0.46097  -0.43908  -0.42331
  Beta  occ. eigenvalues --   -0.41317  -0.39210  -0.37913  -0.35709  -0.34407
  Beta  occ. eigenvalues --   -0.34131  -0.25910  -0.25087
  Beta virt. eigenvalues --   -0.06610  -0.01697  -0.00434   0.00433   0.01953
  Beta virt. eigenvalues --    0.02287   0.03460   0.04106   0.04611   0.05910
  Beta virt. eigenvalues --    0.06863   0.07151   0.07405   0.07952   0.09642
  Beta virt. eigenvalues --    0.10611   0.11529   0.11703   0.12588   0.13057
  Beta virt. eigenvalues --    0.14018   0.14238   0.15842   0.16193   0.16451
  Beta virt. eigenvalues --    0.17109   0.17503   0.18082   0.19162   0.19636
  Beta virt. eigenvalues --    0.21220   0.21506   0.22323   0.23147   0.23687
  Beta virt. eigenvalues --    0.24390   0.24808   0.24981   0.26274   0.26612
  Beta virt. eigenvalues --    0.27855   0.28265   0.29779   0.30529   0.32212
  Beta virt. eigenvalues --    0.33672   0.34375   0.35087   0.35639   0.39049
  Beta virt. eigenvalues --    0.41186   0.55982   0.60198   0.63489   0.64574
  Beta virt. eigenvalues --    0.67346   0.68348   0.69072   0.70934   0.71932
  Beta virt. eigenvalues --    0.72638   0.73371   0.74656   0.74853   0.76144
  Beta virt. eigenvalues --    0.77749   0.78869   0.80117   0.82463   0.83530
  Beta virt. eigenvalues --    0.89056   0.89688   0.92754   0.93353   0.94301
  Beta virt. eigenvalues --    0.96744   0.99257   1.00949   1.01567   1.05068
  Beta virt. eigenvalues --    1.07523   1.08511   1.10974   1.12554   1.14706
  Beta virt. eigenvalues --    1.16241   1.20647   1.22803   1.25090   1.31020
  Beta virt. eigenvalues --    1.32594   1.39444   1.43133   1.44357   1.47232
  Beta virt. eigenvalues --    1.48274   1.49330   1.50722   1.51766   1.75982
  Beta virt. eigenvalues --    1.77971   1.80210   1.83181   1.85940   1.91759
  Beta virt. eigenvalues --    1.95394   1.97901   1.99805   2.00749   2.06368
  Beta virt. eigenvalues --    2.11296   2.12350   2.15738   2.16379   2.19651
  Beta virt. eigenvalues --    2.21418   2.26609   2.29829   2.31271   2.32957
  Beta virt. eigenvalues --    2.37486   2.38900   2.45453   2.58328   2.61518
  Beta virt. eigenvalues --    2.65145   2.67256   2.74229   2.75161   2.75740
  Beta virt. eigenvalues --    2.78869   2.92622   3.07582   3.41158   4.22490
  Beta virt. eigenvalues --    4.24506   4.24723   4.29534   4.37290   4.41142
  Beta virt. eigenvalues --    4.49741   4.71983
          Condensed to atoms (all electrons):
               1          2          3          4          5          6
     1  C    9.114060  -0.827622  -0.039157  -1.148278  -0.382556  -0.338489
     2  C   -0.827622   6.371011   0.182982   0.456165  -0.080863  -0.099744
     3  C   -0.039157   0.182982   5.647993  -0.013673  -0.106064   0.029500
     4  C   -1.148278   0.456165  -0.013673  10.277950  -3.880914   0.481028
     5  C   -0.382556  -0.080863  -0.106064  -3.880914  10.526433  -0.172903
     6  C   -0.338489  -0.099744   0.029500   0.481028  -0.172903   5.565418
     7  H    0.020300  -0.013594   0.004606   0.222471   0.032379   0.009908
     8  C   -0.164679  -0.121007   0.038564  -0.107386  -0.151540  -0.160907
     9  C   -0.477366   0.029990  -0.014849  -0.069155   0.174623   0.610779
    10  H    0.035250  -0.001492  -0.000167  -0.030523  -0.009976   0.299836
    11  H    0.020440  -0.001484   0.001427  -0.007365  -0.014941   0.009930
    12  H   -0.002528   0.001051  -0.000208   0.008580   0.007288   0.006523
    13  H   -0.130718   0.421887  -0.021327   0.035147  -0.011281   0.014044
    14  H   -0.068266   0.393676  -0.075419  -0.029532   0.047491  -0.004228
    15  H   -0.025252  -0.063160   0.408999   0.016916  -0.015852   0.005762
    16  H    0.053348  -0.090077   0.364230  -0.074259   0.069990  -0.003835
    17  H    0.075168   0.008978  -0.019453   0.040670   0.183859  -0.002778
               7          8          9         10         11         12
     1  C    0.020300  -0.164679  -0.477366   0.035250   0.020440  -0.002528
     2  C   -0.013594  -0.121007   0.029990  -0.001492  -0.001484   0.001051
     3  C    0.004606   0.038564  -0.014849  -0.000167   0.001427  -0.000208
     4  C    0.222471  -0.107386  -0.069155  -0.030523  -0.007365   0.008580
     5  C    0.032379  -0.151540   0.174623  -0.009976  -0.014941   0.007288
     6  C    0.009908  -0.160907   0.610779   0.299836   0.009930   0.006523
     7  H    0.549214  -0.011228   0.012930  -0.004675   0.000019  -0.000158
     8  C   -0.011228   6.129278   0.472326   0.011188   0.289007  -0.012482
     9  C    0.012930   0.472326   5.138049  -0.012258  -0.006886   0.284369
    10  H   -0.004675   0.011188  -0.012258   0.539577  -0.000163  -0.005088
    11  H    0.000019   0.289007  -0.006886  -0.000163   0.540415  -0.005016
    12  H   -0.000158  -0.012482   0.284369  -0.005088  -0.005016   0.541365
    13  H    0.003587  -0.009645   0.002661  -0.000001   0.000003  -0.000000
    14  H    0.000024   0.017068   0.004431   0.000003  -0.000003  -0.000000
    15  H   -0.000002  -0.002328  -0.003913   0.000000   0.000005   0.000000
    16  H   -0.000034   0.014078   0.000911   0.000000  -0.000001  -0.000000
    17  H   -0.000189  -0.015869  -0.007394   0.000018  -0.004175  -0.000149
              13         14         15         16         17
     1  C   -0.130718  -0.068266  -0.025252   0.053348   0.075168
     2  C    0.421887   0.393676  -0.063160  -0.090077   0.008978
     3  C   -0.021327  -0.075419   0.408999   0.364230  -0.019453
     4  C    0.035147  -0.029532   0.016916  -0.074259   0.040670
     5  C   -0.011281   0.047491  -0.015852   0.069990   0.183859
     6  C    0.014044  -0.004228   0.005762  -0.003835  -0.002778
     7  H    0.003587   0.000024  -0.000002  -0.000034  -0.000189
     8  C   -0.009645   0.017068  -0.002328   0.014078  -0.015869
     9  C    0.002661   0.004431  -0.003913   0.000911  -0.007394
    10  H   -0.000001   0.000003   0.000000   0.000000   0.000018
    11  H    0.000003  -0.000003   0.000005  -0.000001  -0.004175
    12  H   -0.000000  -0.000000   0.000000  -0.000000  -0.000149
    13  H    0.516552  -0.023735   0.004284  -0.004005   0.000237
    14  H   -0.023735   0.517209  -0.005979   0.004192   0.001517
    15  H    0.004284  -0.005979   0.533592  -0.030419   0.003062
    16  H   -0.004005   0.004192  -0.030419   0.500800   0.000207
    17  H    0.000237   0.001517   0.003062   0.000207   0.572583
          Atomic-Atomic Spin Densities.
               1          2          3          4          5          6
     1  C    0.447902  -0.132479   0.003507  -0.604580   0.069940   0.157331
     2  C   -0.132479   0.047243  -0.129236   0.358782  -0.056583  -0.053806
     3  C    0.003507  -0.129236   1.305550  -0.078261  -0.042959   0.020769
     4  C   -0.604580   0.358782  -0.078261   0.892890  -0.000487  -0.248986
     5  C    0.069940  -0.056583  -0.042959  -0.000487   0.116623  -0.026838
     6  C    0.157331  -0.053806   0.020769  -0.248986  -0.026838   0.077852
     7  H    0.013039  -0.005223   0.000650  -0.013004   0.001295   0.002404
     8  C    0.138182  -0.158177   0.054477  -0.338910  -0.081239   0.112631
     9  C   -0.072299   0.032209  -0.003605   0.117660  -0.011252  -0.051010
    10  H    0.005292  -0.001196   0.000192  -0.007864  -0.000532   0.004540
    11  H    0.000690  -0.000914   0.000360  -0.002412  -0.004723   0.001667
    12  H   -0.000183   0.000017  -0.000010   0.000313   0.000129  -0.000327
    13  H    0.023985  -0.009921  -0.006762  -0.031782   0.015333   0.001086
    14  H    0.009045  -0.008246  -0.008136  -0.020287   0.011028   0.001779
    15  H   -0.003837  -0.011651  -0.010980  -0.012272   0.021149  -0.000186
    16  H    0.020155  -0.018443  -0.006100  -0.005189  -0.012783   0.004234
    17  H    0.000438  -0.002698   0.001198  -0.003578  -0.001736   0.000920
               7          8          9         10         11         12
     1  C    0.013039   0.138182  -0.072299   0.005292   0.000690  -0.000183
     2  C   -0.005223  -0.158177   0.032209  -0.001196  -0.000914   0.000017
     3  C    0.000650   0.054477  -0.003605   0.000192   0.000360  -0.000010
     4  C   -0.013004  -0.338910   0.117660  -0.007864  -0.002412   0.000313
     5  C    0.001295  -0.081239  -0.011252  -0.000532  -0.004723   0.000129
     6  C    0.002404   0.112631  -0.051010   0.004540   0.001667  -0.000327
     7  H   -0.000879   0.001770  -0.001349   0.000097   0.000000   0.000000
     8  C    0.001770   0.282987  -0.031168   0.001309   0.005497  -0.001045
     9  C   -0.001349  -0.031168   0.053696  -0.002073  -0.000331   0.001085
    10  H    0.000097   0.001309  -0.002073   0.001078   0.000001   0.000010
    11  H    0.000000   0.005497  -0.000331   0.000001   0.000613   0.000015
    12  H    0.000000  -0.001045   0.001085   0.000010   0.000015  -0.001590
    13  H    0.000183   0.003560  -0.000806   0.000001   0.000000  -0.000000
    14  H    0.000026   0.009978  -0.001040   0.000000   0.000001   0.000000
    15  H    0.000002   0.003052   0.000850   0.000000   0.000006  -0.000000
    16  H    0.000021   0.004888  -0.001039   0.000000   0.000000   0.000000
    17  H    0.000003   0.005626  -0.000201   0.000000   0.000035   0.000000
              13         14         15         16         17
     1  C    0.023985   0.009045  -0.003837   0.020155   0.000438
     2  C   -0.009921  -0.008246  -0.011651  -0.018443  -0.002698
     3  C   -0.006762  -0.008136  -0.010980  -0.006100   0.001198
     4  C   -0.031782  -0.020287  -0.012272  -0.005189  -0.003578
     5  C    0.015333   0.011028   0.021149  -0.012783  -0.001736
     6  C    0.001086   0.001779  -0.000186   0.004234   0.000920
     7  H    0.000183   0.000026   0.000002   0.000021   0.000003
     8  C    0.003560   0.009978   0.003052   0.004888   0.005626
     9  C   -0.000806  -0.001040   0.000850  -0.001039  -0.000201
    10  H    0.000001   0.000000   0.000000   0.000000   0.000000
    11  H    0.000000   0.000001   0.000006   0.000000   0.000035
    12  H   -0.000000   0.000000  -0.000000   0.000000   0.000000
    13  H    0.010046   0.002085  -0.000011   0.001050   0.000025
    14  H    0.002085   0.009091   0.001478   0.000109   0.000194
    15  H   -0.000011   0.001478  -0.035241   0.002790   0.000796
    16  H    0.001050   0.000109   0.002790  -0.031427   0.000089
    17  H    0.000025   0.000194   0.000796   0.000089  -0.001067
 Mulliken charges and spin densities:
               1          2
     1  C    0.286346   0.076128
     2  C   -0.566699  -0.150322
     3  C   -0.387985   1.100655
     4  C   -0.177841   0.002031
     5  C   -0.215173  -0.003634
     6  C   -0.249843   0.004061
     7  H    0.174443  -0.000966
     8  C   -0.214438   0.013418
     9  C   -0.139247   0.029328
    10  H    0.178471   0.000856
    11  H    0.178788   0.000506
    12  H    0.176453  -0.001586
    13  H    0.202312   0.008073
    14  H    0.221551   0.007107
    15  H    0.174285  -0.044055
    16  H    0.194872  -0.041644
    17  H    0.163708   0.000044
 Sum of Mulliken charges =  -0.00000   1.00000
 Mulliken charges and spin densities with hydrogens summed into heavy atoms:
               1          2
     1  C    0.286346   0.076128
     2  C   -0.142836  -0.135142
     3  C   -0.018829   1.014956
     4  C   -0.003398   0.001066
     5  C   -0.051465  -0.003590
     6  C   -0.071373   0.004917
     8  C   -0.035650   0.013924
     9  C    0.037206   0.027742
 Electronic spatial extent (au):  <R**2>=            944.2607
 Charge=             -0.0000 electrons
 Dipole moment (field-independent basis, Debye):
    X=             -0.5175    Y=              0.0960    Z=             -0.0908  Tot=              0.5341
 Quadrupole moment (field-independent basis, Debye-Ang):
   XX=            -50.1521   YY=            -44.6682   ZZ=            -52.1855
   XY=              0.4687   XZ=             -2.0100   YZ=              0.9906
 Traceless Quadrupole moment (field-independent basis, Debye-Ang):
   XX=             -1.1501   YY=              4.3337   ZZ=             -3.1836
   XY=              0.4687   XZ=             -2.0100   YZ=              0.9906
 Octapole moment (field-independent basis, Debye-Ang**2):
  XXX=            -32.2382  YYY=              0.9590  ZZZ=              0.3934  XYY=             -1.7275
  XXY=              2.0649  XXZ=             -1.7654  XZZ=              4.6759  YZZ=              0.4409
  YYZ=             -0.1303  XYZ=              0.8883
 Hexadecapole moment (field-independent basis, Debye-Ang**3):
 XXXX=           -957.8363 YYYY=           -320.8708 ZZZZ=           -121.2365 XXXY=             11.7273
 XXXZ=            -28.9996 YYYX=              2.8672 YYYZ=              3.0876 ZZZX=             -0.2682
 ZZZY=              1.8001 XXYY=           -193.5180 XXZZ=           -177.5002 YYZZ=            -84.8898
 XXYZ=              5.6417 YYXZ=             -3.9176 ZZXY=              0.6165
 N-N= 3.340807867581D+02 E-N=-1.385183346867D+03  KE= 3.072299476552D+02
                          Isotropic Fermi Contact Couplings
        Atom                 a.u.       MegaHertz       Gauss      10(-4) cm-1
     1  C(13)              0.05322      59.82799      21.34811      19.95647
     2  C(13)             -0.01357     -15.25993      -5.44512      -5.09016
     3  C(13)              0.16200     182.12411      64.98641      60.75006
     4  C(13)              0.00405       4.55411       1.62502       1.51909
     5  C(13)              0.00540       6.07261       2.16686       2.02560
     6  C(13)              0.00045       0.50697       0.18090       0.16911
     7  H(1)              -0.00030      -1.33673      -0.47698      -0.44589
     8  C(13)             -0.00185      -2.07546      -0.74058      -0.69230
     9  C(13)              0.00326       3.66673       1.30838       1.22309
    10  H(1)               0.00029       1.29817       0.46322       0.43302
    11  H(1)               0.00015       0.68588       0.24474       0.22878
    12  H(1)              -0.00046      -2.03974      -0.72783      -0.68038
    13  H(1)               0.00399      17.83354       6.36345       5.94863
    14  H(1)               0.00323      14.44514       5.15438       4.81838
    15  H(1)              -0.00899     -40.16819     -14.33301     -13.39867
    16  H(1)              -0.00878     -39.23753     -14.00093     -13.08823
    17  H(1)              -0.00031      -1.36996      -0.48884      -0.45697
 --------------------------------------------------------
       Center         ----  Spin Dipole Couplings  ----
                      3XX-RR        3YY-RR        3ZZ-RR
 --------------------------------------------------------
     1   Atom        0.075375     -0.026288     -0.049087
     2   Atom        0.013470     -0.009893     -0.003577
     3   Atom        0.995562     -0.502960     -0.492602
     4   Atom       -0.014066     -0.015021      0.029087
     5   Atom        0.000042     -0.015659      0.015617
     6   Atom        0.005867      0.000905     -0.006772
     7   Atom       -0.001059      0.003669     -0.002609
     8   Atom        0.007001      0.001152     -0.008154
     9   Atom       -0.010753     -0.015931      0.026684
    10   Atom        0.001260      0.000079     -0.001339
    11   Atom        0.002057     -0.000467     -0.001590
    12   Atom        0.003117     -0.002319     -0.000797
    13   Atom       -0.006703      0.009397     -0.002694
    14   Atom       -0.007003     -0.010785      0.017788
    15   Atom       -0.006767      0.068022     -0.061255
    16   Atom       -0.007860     -0.037885      0.045745
    17   Atom        0.002442      0.000197     -0.002639
 --------------------------------------------------------
                        XY            XZ            YZ
 --------------------------------------------------------
     1   Atom        0.000507      0.010025     -0.000616
     2   Atom       -0.011204      0.011723     -0.013929
     3   Atom        0.051767     -0.142840     -0.006052
     4   Atom       -0.005260     -0.003640      0.006646
     5   Atom        0.000102      0.022380     -0.008340
     6   Atom        0.000378     -0.005421     -0.000140
     7   Atom       -0.002244      0.000949      0.000036
     8   Atom        0.001528      0.000557      0.001394
     9   Atom        0.000125      0.005190     -0.002236
    10   Atom       -0.000914     -0.000140     -0.000139
    11   Atom        0.001643      0.000444      0.000129
    12   Atom        0.001223     -0.000353     -0.000248
    13   Atom       -0.004121      0.002102     -0.012267
    14   Atom       -0.000442      0.005655     -0.003401
    15   Atom        0.016484     -0.003647      0.019419
    16   Atom       -0.000802     -0.012035      0.052150
    17   Atom        0.006096      0.005319      0.007873
 --------------------------------------------------------


 ---------------------------------------------------------------------------------
              Anisotropic Spin Dipole Couplings in Principal Axis System
 ---------------------------------------------------------------------------------

       Atom             a.u.   MegaHertz   Gauss  10(-4) cm-1        Axes

              Baa    -0.0499    -6.697    -2.390    -2.234 -0.0798  0.0277  0.9964
     1 C(13)  Bbb    -0.0263    -3.525    -1.258    -1.176 -0.0022  0.9996 -0.0280
              Bcc     0.0762    10.223     3.648     3.410  0.9968  0.0045  0.0797
 
              Baa    -0.0211    -2.831    -1.010    -0.944  0.0564  0.7996  0.5979
     2 C(13)  Bbb    -0.0059    -0.786    -0.280    -0.262 -0.6374 -0.4321  0.6379
              Bcc     0.0270     3.617     1.291     1.207  0.7684 -0.4171  0.4853
 
              Baa    -0.5068   -68.008   -24.267   -22.685  0.0666  0.4801  0.8747
     3 C(13)  Bbb    -0.5041   -67.651   -24.139   -22.566 -0.0755  0.8765 -0.4754
              Bcc     1.0109   135.659    48.406    45.251  0.9949  0.0344 -0.0947
 
              Baa    -0.0200    -2.679    -0.956    -0.893  0.6455  0.7617 -0.0553
     4 C(13)  Bbb    -0.0105    -1.414    -0.505    -0.472  0.7574 -0.6291  0.1751
              Bcc     0.0305     4.093     1.460     1.365 -0.0986  0.1549  0.9830
 
              Baa    -0.0211    -2.834    -1.011    -0.945 -0.5005  0.7271  0.4700
     5 C(13)  Bbb    -0.0114    -1.524    -0.544    -0.508  0.6585  0.6722 -0.3385
              Bcc     0.0325     4.358     1.555     1.454  0.5620 -0.1400  0.8152
 
              Baa    -0.0088    -1.178    -0.420    -0.393  0.3471  0.0001  0.9378
     6 C(13)  Bbb     0.0009     0.118     0.042     0.039 -0.0540  0.9983  0.0199
              Bcc     0.0079     1.060     0.378     0.353  0.9363  0.0575 -0.3466
 
              Baa    -0.0032    -1.730    -0.617    -0.577 -0.5418 -0.1801  0.8210
     7 H(1)   Bbb    -0.0013    -0.712    -0.254    -0.238  0.7518  0.3330  0.5691
              Bcc     0.0046     2.443     0.872     0.815 -0.3759  0.9256 -0.0450
 
              Baa    -0.0084    -1.123    -0.401    -0.374 -0.0218 -0.1415  0.9897
     8 C(13)  Bbb     0.0009     0.126     0.045     0.042 -0.2536  0.9583  0.1314
              Bcc     0.0074     0.997     0.356     0.332  0.9671  0.2481  0.0568
 
              Baa    -0.0161    -2.158    -0.770    -0.720 -0.0840  0.9945  0.0622
     9 C(13)  Bbb    -0.0114    -1.532    -0.547    -0.511  0.9874  0.0915 -0.1291
              Bcc     0.0275     3.690     1.317     1.231  0.1341 -0.0506  0.9897
 
              Baa    -0.0014    -0.735    -0.262    -0.245  0.1083  0.1616  0.9809
    10 H(1)   Bbb    -0.0004    -0.204    -0.073    -0.068  0.4647  0.8640 -0.1936
              Bcc     0.0018     0.938     0.335     0.313  0.8788 -0.4768 -0.0184
 
              Baa    -0.0017    -0.882    -0.315    -0.294 -0.1798  0.1432  0.9732
    11 H(1)   Bbb    -0.0013    -0.672    -0.240    -0.224 -0.4120  0.8875 -0.2067
              Bcc     0.0029     1.554     0.555     0.518  0.8933  0.4381  0.1006
 
              Baa    -0.0026    -1.386    -0.495    -0.462 -0.2028  0.9746  0.0947
    12 H(1)   Bbb    -0.0008    -0.437    -0.156    -0.146  0.1117 -0.0731  0.9911
              Bcc     0.0034     1.823     0.651     0.608  0.9728  0.2115 -0.0940
 
              Baa    -0.0104    -5.537    -1.976    -1.847  0.1340  0.5424  0.8294
    13 H(1)   Bbb    -0.0075    -4.009    -1.431    -1.337  0.9737  0.0835 -0.2119
              Bcc     0.0179     9.546     3.406     3.184 -0.1842  0.8360 -0.5169
 
              Baa    -0.0112    -5.975    -2.132    -1.993 -0.0707  0.9890  0.1298
    14 H(1)   Bbb    -0.0082    -4.378    -1.562    -1.460  0.9752  0.0959 -0.1996
              Bcc     0.0194    10.353     3.694     3.453  0.2099 -0.1125  0.9712
 
              Baa    -0.0648   -34.548   -12.328   -11.524  0.1063 -0.1568  0.9819
    15 H(1)   Bbb    -0.0092    -4.919    -1.755    -1.641  0.9755 -0.1746 -0.1335
              Bcc     0.0740    39.467    14.083    13.165  0.1924  0.9721  0.1344
 
              Baa    -0.0633   -33.765   -12.048   -11.263 -0.0820  0.8955 -0.4374
    16 H(1)   Bbb    -0.0091    -4.832    -1.724    -1.612  0.9870  0.1340  0.0892
              Bcc     0.0723    38.597    13.773    12.875 -0.1385  0.4244  0.8948
 
              Baa    -0.0092    -4.922    -1.756    -1.642 -0.0226 -0.6324  0.7743
    17 H(1)   Bbb    -0.0038    -2.006    -0.716    -0.669  0.7930 -0.4829 -0.3713
              Bcc     0.0130     6.928     2.472     2.311  0.6087  0.6057  0.5125
 

 ---------------------------------------------------------------------------------

 1\1\GINC-NODE31\SP\UB3LYP\6-31+G(d)\C8H9(2)\YANZ\12-Oct-2023\0\\# ub3l
 yp/6-31+g(d)\\tmpdir/M3_ref_5.gjf\\0,2\C,0,0.35803021,-0.69509548,-0.0
 6228099\C,0,-1.0330974,-1.3184176,-0.02875126\C,0,-1.56036485,-0.78282
 937,1.30257086\C,0,1.5691386,-1.37271489,-0.06897614\C,0,0.33039499,0.
 70663737,-0.01689504\C,0,2.76086323,-0.64577722,-0.05543502\H,0,1.5878
 1592,-2.45944017,-0.09245997\C,0,1.51456879,1.42595753,0.00431597\C,0,
 2.73397309,0.74492017,-0.01998226\H,0,3.71236256,-1.16918432,-0.073236
 01\H,0,1.49361496,2.51222136,0.0410451\H,0,3.66448683,1.30480451,-0.00
 921086\H,0,-0.99835638,-2.40914399,-0.07674181\H,0,-1.63048379,-0.8581
 2368,-0.82944811\H,0,-1.7367911,0.27897731,1.24463587\H,0,-1.10668637,
 -1.20451272,2.20001314\H,0,-0.68507474,1.12345238,0.01035115\\Version=
 ES64L-G16RevA.03\State=2-A\HF=-310.2015539\S2=0.753869\S2-1=0.\S2A=0.7
 50011\RMSD=5.495e-09\Dipole=0.1946399,0.0332759,-0.0718851\Quadrupole=
 -0.095893,2.9992835,-2.9033906,-1.0471659,1.1808992,0.2144513\PG=C01 [
 X(C8H9)]\\@


    THE DOUGHNUT CREED
 AS YOU RAMBLE ON THROUGH LIFE, BROTHER
 WHATEVER BE YOUR GOAL
 KEEP YOUR EYE UPON THE DOUGHNUT
 AND NOT UPON THE HOLE.
 Job cpu time:       0 days  0 hours  5 minutes 22.4 seconds.
 Elapsed time:       0 days  0 hours  1 minutes 28.0 seconds.
 File lengths (MBytes):  RWF=     23 Int=      0 D2E=      0 Chk=      3 Scr=      1
 Normal termination of Gaussian 16 at Thu Oct 12 15:24:59 2023.
