 Entering Gaussian System, Link 0=g16
 Initial command:
 /share/apps/gaussian/g16/l1.exe "/tmp/58287.mgr/Gau-20801.inp" -scrdir="/tmp/58287.mgr/"
 Entering Link 1 = /share/apps/gaussian/g16/l1.exe PID=     20802.
  
 Copyright (c) 1988,1990,1992,1993,1995,1998,2003,2009,2016,
            Gaussian, Inc.  All Rights Reserved.
  
 This is part of the Gaussian(R) 16 program.  It is based on
 the Gaussian(R) 09 system (copyright 2009, Gaussian, Inc.),
 the Gaussian(R) 03 system (copyright 2003, Gaussian, Inc.),
 the Gaussian(R) 98 system (copyright 1998, Gaussian, Inc.),
 the Gaussian(R) 94 system (copyright 1995, Gaussian, Inc.),
 the Gaussian 92(TM) system (copyright 1992, Gaussian, Inc.),
 the Gaussian 90(TM) system (copyright 1990, Gaussian, Inc.),
 the Gaussian 88(TM) system (copyright 1988, Gaussian, Inc.),
 the Gaussian 86(TM) system (copyright 1986, Carnegie Mellon
 University), and the Gaussian 82(TM) system (copyright 1983,
 Carnegie Mellon University). Gaussian is a federally registered
 trademark of Gaussian, Inc.
  
 This software contains proprietary and confidential information,
 including trade secrets, belonging to Gaussian, Inc.
  
 This software is provided under written license and may be
 used, copied, transmitted, or stored only in accord with that
 written license.
  
 The following legend is applicable only to US Government
 contracts under FAR:
  
                    RESTRICTED RIGHTS LEGEND
  
 Use, reproduction and disclosure by the US Government is
 subject to restrictions as set forth in subparagraphs (a)
 and (c) of the Commercial Computer Software - Restricted
 Rights clause in FAR 52.227-19.
  
 Gaussian, Inc.
 340 Quinnipiac St., Bldg. 40, Wallingford CT 06492
  
  
 ---------------------------------------------------------------
 Warning -- This program may not be used in any manner that
 competes with the business of Gaussian, Inc. or will provide
 assistance to any competitor of Gaussian, Inc.  The licensee
 of this program is prohibited from giving any competitor of
 Gaussian, Inc. access to this program.  By using this program,
 the user acknowledges that Gaussian, Inc. is engaged in the
 business of creating and licensing software in the field of
 computational chemistry and represents and warrants to the
 licensee that it is not a competitor of Gaussian, Inc. and that
 it will not use this program in any manner prohibited above.
 ---------------------------------------------------------------
  

 Cite this work as:
 Gaussian 16, Revision A.03,
 M. J. Frisch, G. W. Trucks, H. B. Schlegel, G. E. Scuseria, 
 M. A. Robb, J. R. Cheeseman, G. Scalmani, V. Barone, 
 G. A. Petersson, H. Nakatsuji, X. Li, M. Caricato, A. V. Marenich, 
 J. Bloino, B. G. Janesko, R. Gomperts, B. Mennucci, H. P. Hratchian, 
 J. V. Ortiz, A. F. Izmaylov, J. L. Sonnenberg, D. Williams-Young, 
 F. Ding, F. Lipparini, F. Egidi, J. Goings, B. Peng, A. Petrone, 
 T. Henderson, D. Ranasinghe, V. G. Zakrzewski, J. Gao, N. Rega, 
 G. Zheng, W. Liang, M. Hada, M. Ehara, K. Toyota, R. Fukuda, 
 J. Hasegawa, M. Ishida, T. Nakajima, Y. Honda, O. Kitao, H. Nakai, 
 T. Vreven, K. Throssell, J. A. Montgomery, Jr., J. E. Peralta, 
 F. Ogliaro, M. J. Bearpark, J. J. Heyd, E. N. Brothers, K. N. Kudin, 
 V. N. Staroverov, T. A. Keith, R. Kobayashi, J. Normand, 
 K. Raghavachari, A. P. Rendell, J. C. Burant, S. S. Iyengar, 
 J. Tomasi, M. Cossi, J. M. Millam, M. Klene, C. Adamo, R. Cammi, 
 J. W. Ochterski, R. L. Martin, K. Morokuma, O. Farkas, 
 J. B. Foresman, and D. J. Fox, Gaussian, Inc., Wallingford CT, 2016.
 
 ******************************************
 Gaussian 16:  ES64L-G16RevA.03 25-Dec-2016
                12-Oct-2023 
 ******************************************
 %nprocshared=4
 Will use up to    4 processors via shared memory.
 %mem=4GB
 ------------------
 # ub3lyp/6-31+g(d)
 ------------------
 1/38=1,172=1/1;
 2/12=2,17=6,18=5,40=1/2;
 3/5=1,6=6,7=11,11=2,25=1,30=1,74=-5,116=2/1,2,3;
 4//1;
 5/5=2,38=5/2;
 6/7=2,8=2,9=2,10=2,28=1/1;
 99/5=1,9=1/99;
 -------------------
 tmpdir/M3_ref_7.gjf
 -------------------
 Symbolic Z-matrix:
 Charge =  0 Multiplicity = 1
 C                     0.35803  -0.6951   -0.06228 
 C                    -1.0331   -1.31842  -0.02875 
 C                    -1.85835  -0.68255  -1.13486 
 C                     1.56914  -1.37271  -0.06898 
 C                     0.33039   0.70664  -0.0169 
 C                     2.76086  -0.64578  -0.05544 
 H                     1.58782  -2.45944  -0.09246 
 C                     1.51457   1.42596   0.00432 
 C                     2.73397   0.74492  -0.01998 
 H                     3.71236  -1.16918  -0.07324 
 H                     1.49361   2.51222   0.04105 
 H                     3.66449   1.3048   -0.00921 
 H                    -1.41478  -0.93071   0.93497 
 H                    -0.99836  -2.40914  -0.07674 
 O                    -1.87094   0.49574  -1.12078 
 H                    -2.40083  -1.28897  -1.85186 
 H                    -0.68507   1.12345   0.01035 
 
                          Input orientation:                          
 ---------------------------------------------------------------------
 Center     Atomic      Atomic             Coordinates (Angstroms)
 Number     Number       Type             X           Y           Z
 ---------------------------------------------------------------------
      1          6           0        0.358030   -0.695095   -0.062281
      2          6           0       -1.033097   -1.318418   -0.028751
      3          6           0       -1.858347   -0.682552   -1.134860
      4          6           0        1.569139   -1.372715   -0.068976
      5          6           0        0.330395    0.706637   -0.016895
      6          6           0        2.760863   -0.645777   -0.055435
      7          1           0        1.587816   -2.459440   -0.092460
      8          6           0        1.514569    1.425958    0.004316
      9          6           0        2.733973    0.744920   -0.019982
     10          1           0        3.712363   -1.169184   -0.073236
     11          1           0        1.493615    2.512221    0.041045
     12          1           0        3.664487    1.304805   -0.009211
     13          1           0       -1.414779   -0.930713    0.934974
     14          1           0       -0.998356   -2.409144   -0.076742
     15          8           0       -1.870943    0.495744   -1.120785
     16          1           0       -2.400827   -1.288970   -1.851861
     17          1           0       -0.685075    1.123452    0.010351
 ---------------------------------------------------------------------
                    Distance matrix (angstroms):
                    1          2          3          4          5
     1  C    0.000000
     2  C    1.524759   0.000000
     3  C    2.462298   1.519486   0.000000
     4  C    1.387803   2.603113   3.655145   0.000000
     5  C    1.402740   2.441332   2.823169   2.420930   0.000000
     6  C    2.403349   3.853219   4.743797   1.396005   2.781670
     7  H    2.150859   2.859227   4.014968   1.087139   3.407472
     8  C    2.416792   3.744769   4.137644   2.800164   1.385691
     9  C    2.778586   4.295144   4.936601   2.417358   2.403885
    10  H    3.387687   4.748014   5.691806   2.152871   3.867762
    11  H    3.403984   4.589438   4.777550   3.887228   2.148621
    12  H    3.864592   5.380425   5.976484   3.400466   3.387334
    13  H    2.047654   1.106690   2.131326   3.179158   2.575384
    14  H    2.185854   1.092334   2.200072   2.768804   3.387810
    15  O    2.739863   2.277214   1.178448   4.053591   2.471626
    16  H    3.341643   2.279316   1.084490   4.352737   3.848262
    17  H    2.097727   2.466856   2.439207   3.364316   1.098024
                    6          7          8          9         10
     6  C    0.000000
     7  H    2.160274   0.000000
     8  C    2.418451   3.887293   0.000000
     9  C    1.391409   3.403947   1.396907   0.000000
    10  H    1.086104   2.485725   3.401628   2.150320   0.000000
    11  H    3.404142   4.974346   1.087087   2.159992   4.299843
    12  H    2.150219   4.299887   2.153371   1.086021   2.475280
    13  H    4.300940   3.522528   3.873125   4.575132   5.230768
    14  H    4.152306   2.586709   4.585779   4.886883   4.871179
    15  O    4.887910   4.664073   3.686846   4.741213   5.919682
    16  H    5.503080   4.513841   5.113370   5.818820   6.367805
    17  H    3.874144   4.244257   2.220355   3.440072   4.959902
                   11         12         13         14         15
    11  H    0.000000
    12  H    2.484566   0.000000
    13  H    4.594743   5.629206   0.000000
    14  H    5.517575   5.961550   1.839222   0.000000
    15  O    4.091000   5.703609   2.543424   3.207773   0.000000
    16  H    5.761843   6.849165   2.977766   2.524433   2.000114
    17  H    2.583856   4.353385   2.367908   3.547530   1.754927
                   16         17
    16  H    0.000000
    17  H    3.497345   0.000000
 Stoichiometry    C8H8O
 Framework group  C1[X(C8H8O)]
 Deg. of freedom    45
 Full point group                 C1      NOp   1
 Largest Abelian subgroup         C1      NOp   1
 Largest concise Abelian subgroup C1      NOp   1
                         Standard orientation:                         
 ---------------------------------------------------------------------
 Center     Atomic      Atomic             Coordinates (Angstroms)
 Number     Number       Type             X           Y           Z
 ---------------------------------------------------------------------
      1          6           0        0.114773    0.534595    0.206552
      2          6           0        1.549156    0.973009    0.480831
      3          6           0        2.468922    0.145648   -0.401407
      4          6           0       -0.963325    1.360502   -0.079069
      5          6           0       -0.067903   -0.850205    0.335534
      6          6           0       -2.227761    0.797793   -0.261795
      7          1           0       -0.821246    2.434719   -0.167070
      8          6           0       -1.325363   -1.405728    0.161385
      9          6           0       -2.407699   -0.576835   -0.143302
     10          1           0       -3.073673    1.436763   -0.497956
     11          1           0       -1.467669   -2.478680    0.262771
     12          1           0       -3.393918   -1.008563   -0.286218
     13          1           0        1.682041    0.620763    1.521516
     14          1           0        1.680840    2.051219    0.365432
     15          8           0        2.309589   -1.019042   -0.318654
     16          1           0        3.218468    0.614799   -1.029257
     17          1           0        0.853645   -1.391358    0.587644
 ---------------------------------------------------------------------
 Rotational constants (GHZ):           3.7745923           1.2517840           0.9914104
 Standard basis: 6-31+G(d) (6D, 7F)
 There are   187 symmetry adapted cartesian basis functions of A   symmetry.
 There are   187 symmetry adapted basis functions of A   symmetry.
   187 basis functions,   320 primitive gaussians,   187 cartesian basis functions
    32 alpha electrons       32 beta electrons
       nuclear repulsion energy       407.5529149713 Hartrees.
 NAtoms=   17 NActive=   17 NUniq=   17 SFac= 1.00D+00 NAtFMM=   60 NAOKFM=F Big=F
 Integral buffers will be    131072 words long.
 Raffenetti 2 integral format.
 Two-electron integral symmetry is turned on.
 One-electron integrals computed using PRISM.
 NBasis=   187 RedAO= T EigKep=  3.74D-06  NBF=   187
 NBsUse=   187 1.00D-06 EigRej= -1.00D+00 NBFU=   187
 ExpMin= 4.38D-02 ExpMax= 5.48D+03 ExpMxC= 8.25D+02 IAcc=3 IRadAn=         5 AccDes= 0.00D+00
 Harris functional with IExCor=  402 and IRadAn=       5 diagonalized for initial guess.
 HarFok:  IExCor=  402 AccDes= 0.00D+00 IRadAn=         5 IDoV= 1 UseB2=F ITyADJ=14
 ICtDFT=  3500011 ScaDFX=  1.000000  1.000000  1.000000  1.000000
 FoFCou: FMM=F IPFlag=           0 FMFlag=      100000 FMFlg1=           0
         NFxFlg=           0 DoJE=T BraDBF=F KetDBF=T FulRan=T
         wScrn=  0.000000 ICntrl=       500 IOpCl=  0 I1Cent=   200000004 NGrid=           0
         NMat0=    1 NMatS0=      1 NMatT0=    0 NMatD0=    1 NMtDS0=    0 NMtDT0=    0
 Petite list used in FoFCou.
 Initial guess <Sx>= 0.0000 <Sy>= 0.0000 <Sz>= 0.0000 <S**2>=-0.0000 S=-0.0000
 Keep R1 and R2 ints in memory in canonical form, NReq=313055663.
 Requested convergence on RMS density matrix=1.00D-08 within 128 cycles.
 Requested convergence on MAX density matrix=1.00D-06.
 Requested convergence on             energy=1.00D-06.
 No special actions if energy rises.
 SCF Done:  E(UB3LYP) =  -384.861514022     A.U. after   15 cycles
            NFock= 15  Conv=0.36D-08     -V/T= 2.0086
 <Sx>= 0.0000 <Sy>= 0.0000 <Sz>= 0.0000 <S**2>=-0.0000 S=-0.0000
 <L.S>= 0.000000000000E+00
 Annihilation of the first spin contaminant:
 S**2 before annihilation    -0.0000,   after    -0.0000

 **********************************************************************

            Population analysis using the SCF density.

 **********************************************************************

 Orbital symmetries:
 Alpha Orbitals:
       Occupied  (A) (A) (A) (A) (A) (A) (A) (A) (A) (A) (A) (A)
                 (A) (A) (A) (A) (A) (A) (A) (A) (A) (A) (A) (A)
                 (A) (A) (A) (A) (A) (A) (A) (A)
       Virtual   (A) (A) (A) (A) (A) (A) (A) (A) (A) (A) (A) (A)
                 (A) (A) (A) (A) (A) (A) (A) (A) (A) (A) (A) (A)
                 (A) (A) (A) (A) (A) (A) (A) (A) (A) (A) (A) (A)
                 (A) (A) (A) (A) (A) (A) (A) (A) (A) (A) (A) (A)
                 (A) (A) (A) (A) (A) (A) (A) (A) (A) (A) (A) (A)
                 (A) (A) (A) (A) (A) (A) (A) (A) (A) (A) (A) (A)
                 (A) (A) (A) (A) (A) (A) (A) (A) (A) (A) (A) (A)
                 (A) (A) (A) (A) (A) (A) (A) (A) (A) (A) (A) (A)
                 (A) (A) (A) (A) (A) (A) (A) (A) (A) (A) (A) (A)
                 (A) (A) (A) (A) (A) (A) (A) (A) (A) (A) (A) (A)
                 (A) (A) (A) (A) (A) (A) (A) (A) (A) (A) (A) (A)
                 (A) (A) (A) (A) (A) (A) (A) (A) (A) (A) (A) (A)
                 (A) (A) (A) (A) (A) (A) (A) (A) (A) (A) (A)
 Beta  Orbitals:
       Occupied  (A) (A) (A) (A) (A) (A) (A) (A) (A) (A) (A) (A)
                 (A) (A) (A) (A) (A) (A) (A) (A) (A) (A) (A) (A)
                 (A) (A) (A) (A) (A) (A) (A) (A)
       Virtual   (A) (A) (A) (A) (A) (A) (A) (A) (A) (A) (A) (A)
                 (A) (A) (A) (A) (A) (A) (A) (A) (A) (A) (A) (A)
                 (A) (A) (A) (A) (A) (A) (A) (A) (A) (A) (A) (A)
                 (A) (A) (A) (A) (A) (A) (A) (A) (A) (A) (A) (A)
                 (A) (A) (A) (A) (A) (A) (A) (A) (A) (A) (A) (A)
                 (A) (A) (A) (A) (A) (A) (A) (A) (A) (A) (A) (A)
                 (A) (A) (A) (A) (A) (A) (A) (A) (A) (A) (A) (A)
                 (A) (A) (A) (A) (A) (A) (A) (A) (A) (A) (A) (A)
                 (A) (A) (A) (A) (A) (A) (A) (A) (A) (A) (A) (A)
                 (A) (A) (A) (A) (A) (A) (A) (A) (A) (A) (A) (A)
                 (A) (A) (A) (A) (A) (A) (A) (A) (A) (A) (A) (A)
                 (A) (A) (A) (A) (A) (A) (A) (A) (A) (A) (A) (A)
                 (A) (A) (A) (A) (A) (A) (A) (A) (A) (A) (A)
 The electronic state is 1-A.
 Alpha  occ. eigenvalues --  -19.16963 -10.29404 -10.21002 -10.20291 -10.19479
 Alpha  occ. eigenvalues --  -10.19279 -10.19034 -10.18921 -10.17594  -1.09496
 Alpha  occ. eigenvalues --   -0.86152  -0.79115  -0.74639  -0.71523  -0.62308
 Alpha  occ. eigenvalues --   -0.60461  -0.57926  -0.51182  -0.50607  -0.48074
 Alpha  occ. eigenvalues --   -0.46611  -0.45115  -0.43575  -0.41532  -0.40662
 Alpha  occ. eigenvalues --   -0.38138  -0.36156  -0.34928  -0.33797  -0.26920
 Alpha  occ. eigenvalues --   -0.24991  -0.24394
 Alpha virt. eigenvalues --   -0.05410  -0.00859  -0.00653   0.00574   0.01569
 Alpha virt. eigenvalues --    0.02728   0.02861   0.04399   0.04474   0.05806
 Alpha virt. eigenvalues --    0.06642   0.06747   0.07633   0.07826   0.09763
 Alpha virt. eigenvalues --    0.10320   0.10893   0.11272   0.12751   0.13490
 Alpha virt. eigenvalues --    0.14445   0.14594   0.15805   0.16175   0.16956
 Alpha virt. eigenvalues --    0.17354   0.17705   0.18310   0.18665   0.20143
 Alpha virt. eigenvalues --    0.20790   0.21295   0.22332   0.22530   0.23307
 Alpha virt. eigenvalues --    0.23871   0.24862   0.25084   0.25544   0.26312
 Alpha virt. eigenvalues --    0.27267   0.27856   0.29454   0.30086   0.30813
 Alpha virt. eigenvalues --    0.31532   0.32234   0.33039   0.35248   0.35553
 Alpha virt. eigenvalues --    0.36287   0.37737   0.40133   0.41023   0.45996
 Alpha virt. eigenvalues --    0.56757   0.60939   0.64604   0.67309   0.68230
 Alpha virt. eigenvalues --    0.68946   0.70224   0.72265   0.72770   0.73220
 Alpha virt. eigenvalues --    0.74431   0.74881   0.76055   0.76662   0.78256
 Alpha virt. eigenvalues --    0.79294   0.80769   0.81960   0.85568   0.87313
 Alpha virt. eigenvalues --    0.90452   0.91885   0.93745   0.95413   0.96365
 Alpha virt. eigenvalues --    0.99316   1.00916   1.03642   1.05838   1.08598
 Alpha virt. eigenvalues --    1.09144   1.11166   1.13091   1.16652   1.19513
 Alpha virt. eigenvalues --    1.20713   1.22072   1.24900   1.26913   1.28679
 Alpha virt. eigenvalues --    1.32911   1.33991   1.42827   1.44006   1.45795
 Alpha virt. eigenvalues --    1.47546   1.49081   1.50356   1.51786   1.54397
 Alpha virt. eigenvalues --    1.56678   1.65122   1.67903   1.79737   1.82003
 Alpha virt. eigenvalues --    1.84926   1.85728   1.90072   1.91382   1.95342
 Alpha virt. eigenvalues --    1.96151   1.96779   2.02939   2.08685   2.10087
 Alpha virt. eigenvalues --    2.13268   2.15808   2.16523   2.17744   2.21022
 Alpha virt. eigenvalues --    2.25035   2.30477   2.31535   2.34689   2.36585
 Alpha virt. eigenvalues --    2.38056   2.45588   2.57698   2.61077   2.64037
 Alpha virt. eigenvalues --    2.66433   2.66817   2.75226   2.75418   2.77100
 Alpha virt. eigenvalues --    2.79747   2.90449   2.92980   3.06036   3.12562
 Alpha virt. eigenvalues --    3.41747   4.20285   4.24880   4.25363   4.27858
 Alpha virt. eigenvalues --    4.30586   4.39149   4.40690   4.51767   4.72438
  Beta  occ. eigenvalues --  -19.16963 -10.29404 -10.21002 -10.20291 -10.19479
  Beta  occ. eigenvalues --  -10.19279 -10.19034 -10.18921 -10.17594  -1.09496
  Beta  occ. eigenvalues --   -0.86152  -0.79115  -0.74639  -0.71523  -0.62308
  Beta  occ. eigenvalues --   -0.60461  -0.57926  -0.51182  -0.50607  -0.48074
  Beta  occ. eigenvalues --   -0.46611  -0.45115  -0.43575  -0.41532  -0.40662
  Beta  occ. eigenvalues --   -0.38138  -0.36156  -0.34928  -0.33797  -0.26920
  Beta  occ. eigenvalues --   -0.24991  -0.24394
  Beta virt. eigenvalues --   -0.05410  -0.00859  -0.00653   0.00574   0.01569
  Beta virt. eigenvalues --    0.02728   0.02861   0.04399   0.04474   0.05806
  Beta virt. eigenvalues --    0.06642   0.06747   0.07633   0.07826   0.09763
  Beta virt. eigenvalues --    0.10320   0.10893   0.11272   0.12751   0.13490
  Beta virt. eigenvalues --    0.14445   0.14594   0.15805   0.16175   0.16956
  Beta virt. eigenvalues --    0.17354   0.17705   0.18310   0.18665   0.20143
  Beta virt. eigenvalues --    0.20790   0.21295   0.22332   0.22530   0.23307
  Beta virt. eigenvalues --    0.23871   0.24862   0.25084   0.25544   0.26312
  Beta virt. eigenvalues --    0.27267   0.27856   0.29454   0.30086   0.30813
  Beta virt. eigenvalues --    0.31532   0.32234   0.33039   0.35248   0.35553
  Beta virt. eigenvalues --    0.36287   0.37737   0.40133   0.41023   0.45996
  Beta virt. eigenvalues --    0.56757   0.60939   0.64604   0.67309   0.68230
  Beta virt. eigenvalues --    0.68946   0.70224   0.72265   0.72770   0.73220
  Beta virt. eigenvalues --    0.74431   0.74881   0.76055   0.76662   0.78256
  Beta virt. eigenvalues --    0.79294   0.80769   0.81960   0.85568   0.87313
  Beta virt. eigenvalues --    0.90452   0.91885   0.93745   0.95413   0.96365
  Beta virt. eigenvalues --    0.99316   1.00916   1.03642   1.05838   1.08598
  Beta virt. eigenvalues --    1.09144   1.11166   1.13091   1.16652   1.19513
  Beta virt. eigenvalues --    1.20713   1.22072   1.24900   1.26913   1.28679
  Beta virt. eigenvalues --    1.32911   1.33991   1.42827   1.44006   1.45795
  Beta virt. eigenvalues --    1.47546   1.49081   1.50356   1.51786   1.54397
  Beta virt. eigenvalues --    1.56678   1.65122   1.67903   1.79737   1.82003
  Beta virt. eigenvalues --    1.84926   1.85728   1.90072   1.91382   1.95342
  Beta virt. eigenvalues --    1.96151   1.96779   2.02939   2.08685   2.10087
  Beta virt. eigenvalues --    2.13268   2.15808   2.16523   2.17744   2.21022
  Beta virt. eigenvalues --    2.25035   2.30477   2.31535   2.34689   2.36585
  Beta virt. eigenvalues --    2.38056   2.45588   2.57698   2.61077   2.64037
  Beta virt. eigenvalues --    2.66433   2.66817   2.75226   2.75418   2.77100
  Beta virt. eigenvalues --    2.79747   2.90449   2.92980   3.06036   3.12562
  Beta virt. eigenvalues --    3.41747   4.20285   4.24880   4.25363   4.27858
  Beta virt. eigenvalues --    4.30586   4.39149   4.40690   4.51767   4.72438
          Condensed to atoms (all electrons):
               1          2          3          4          5          6
     1  C   10.366992  -0.827457  -0.151932  -2.620578  -0.503593   0.095799
     2  C   -0.827457   6.762792   0.176502   0.192189  -0.001038  -0.092744
     3  C   -0.151932   0.176502   4.898556   0.089908   0.026502   0.007303
     4  C   -2.620578   0.192189   0.089908  13.762145  -4.603373  -0.374117
     5  C   -0.503593  -0.001038   0.026502  -4.603373  11.981055  -0.157028
     6  C    0.095799  -0.092744   0.007303  -0.374117  -0.157028   5.804262
     7  H    0.051292  -0.021763   0.000593   0.187158   0.034160   0.025057
     8  C   -0.035967  -0.126735   0.015095  -0.655081  -0.852458   0.218043
     9  C   -0.697187   0.008243   0.003530   0.618836   0.236486   0.304536
    10  H    0.028964  -0.001924  -0.000184  -0.033258  -0.005766   0.296142
    11  H    0.031587  -0.001954  -0.000260  -0.011875  -0.035325   0.014958
    12  H    0.004189   0.001080  -0.000001   0.000483   0.009413   0.007991
    13  H   -0.059178   0.444074  -0.058062  -0.039888   0.005303   0.003386
    14  H   -0.138855   0.406864  -0.005307   0.026533  -0.018858   0.007356
    15  O    0.016177  -0.161314   0.462342  -0.129343  -0.167626   0.039178
    16  H   -0.027362  -0.113813   0.411657  -0.038523   0.025201   0.004470
    17  H   -0.003983  -0.015444  -0.016976   0.077286   0.298673  -0.015757
               7          8          9         10         11         12
     1  C    0.051292  -0.035967  -0.697187   0.028964   0.031587   0.004189
     2  C   -0.021763  -0.126735   0.008243  -0.001924  -0.001954   0.001080
     3  C    0.000593   0.015095   0.003530  -0.000184  -0.000260  -0.000001
     4  C    0.187158  -0.655081   0.618836  -0.033258  -0.011875   0.000483
     5  C    0.034160  -0.852458   0.236486  -0.005766  -0.035325   0.009413
     6  C    0.025057   0.218043   0.304536   0.296142   0.014958   0.007991
     7  H    0.556056  -0.013779   0.012393  -0.004813   0.000019  -0.000157
     8  C   -0.013779   6.926235   0.171088   0.009700   0.316383  -0.005900
     9  C    0.012393   0.171088   5.332906  -0.001937  -0.023950   0.273866
    10  H   -0.004813   0.009700  -0.001937   0.542517  -0.000167  -0.005126
    11  H    0.000019   0.316383  -0.023950  -0.000167   0.541070  -0.004815
    12  H   -0.000157  -0.005900   0.273866  -0.005126  -0.004815   0.545277
    13  H    0.000049  -0.001754  -0.002145   0.000003  -0.000008   0.000000
    14  H    0.003487   0.011631  -0.001387  -0.000002   0.000003  -0.000000
    15  O    0.000240   0.161462  -0.037654   0.000003   0.000676   0.000032
    16  H    0.000002   0.020516  -0.002631  -0.000000   0.000000   0.000000
    17  H   -0.000198  -0.034419   0.016030   0.000016  -0.004538  -0.000140
              13         14         15         16         17
     1  C   -0.059178  -0.138855   0.016177  -0.027362  -0.003983
     2  C    0.444074   0.406864  -0.161314  -0.113813  -0.015444
     3  C   -0.058062  -0.005307   0.462342   0.411657  -0.016976
     4  C   -0.039888   0.026533  -0.129343  -0.038523   0.077286
     5  C    0.005303  -0.018858  -0.167626   0.025201   0.298673
     6  C    0.003386   0.007356   0.039178   0.004470  -0.015757
     7  H    0.000049   0.003487   0.000240   0.000002  -0.000198
     8  C   -0.001754   0.011631   0.161462   0.020516  -0.034419
     9  C   -0.002145  -0.001387  -0.037654  -0.002631   0.016030
    10  H    0.000003  -0.000002   0.000003  -0.000000   0.000016
    11  H   -0.000008   0.000003   0.000676   0.000000  -0.004538
    12  H    0.000000  -0.000000   0.000032   0.000000  -0.000140
    13  H    0.478150  -0.023282  -0.008144   0.002639   0.000080
    14  H   -0.023282   0.522948   0.009404   0.002977   0.000143
    15  O   -0.008144   0.009404   8.217654  -0.055893  -0.044951
    16  H    0.002639   0.002977  -0.055893   0.600765  -0.000470
    17  H    0.000080   0.000143  -0.044951  -0.000470   0.506156
          Atomic-Atomic Spin Densities.
               1          2          3          4          5          6
     1  C    0.000000   0.000000  -0.000000  -0.000000  -0.000000  -0.000000
     2  C    0.000000  -0.000000  -0.000000  -0.000000   0.000000   0.000000
     3  C   -0.000000  -0.000000   0.000000   0.000000  -0.000000   0.000000
     4  C   -0.000000  -0.000000   0.000000   0.000000  -0.000000  -0.000000
     5  C   -0.000000   0.000000  -0.000000  -0.000000   0.000000   0.000000
     6  C   -0.000000   0.000000   0.000000  -0.000000   0.000000   0.000000
     7  H   -0.000000   0.000000   0.000000   0.000000   0.000000  -0.000000
     8  C   -0.000000   0.000000   0.000000  -0.000000   0.000000   0.000000
     9  C   -0.000000  -0.000000   0.000000   0.000000   0.000000  -0.000000
    10  H    0.000000  -0.000000  -0.000000   0.000000   0.000000  -0.000000
    11  H    0.000000   0.000000   0.000000   0.000000   0.000000  -0.000000
    12  H    0.000000   0.000000  -0.000000  -0.000000  -0.000000   0.000000
    13  H    0.000000   0.000000  -0.000000  -0.000000   0.000000   0.000000
    14  H   -0.000000  -0.000000   0.000000   0.000000  -0.000000   0.000000
    15  O   -0.000000   0.000000   0.000000  -0.000000  -0.000000   0.000000
    16  H   -0.000000   0.000000   0.000000  -0.000000   0.000000   0.000000
    17  H   -0.000000  -0.000000   0.000000   0.000000   0.000000  -0.000000
               7          8          9         10         11         12
     1  C   -0.000000  -0.000000  -0.000000   0.000000   0.000000   0.000000
     2  C    0.000000   0.000000  -0.000000  -0.000000   0.000000   0.000000
     3  C    0.000000   0.000000   0.000000  -0.000000   0.000000  -0.000000
     4  C    0.000000  -0.000000   0.000000   0.000000   0.000000  -0.000000
     5  C    0.000000   0.000000   0.000000   0.000000   0.000000  -0.000000
     6  C   -0.000000   0.000000  -0.000000  -0.000000  -0.000000   0.000000
     7  H   -0.000000  -0.000000   0.000000   0.000000   0.000000   0.000000
     8  C   -0.000000   0.000000  -0.000000  -0.000000  -0.000000   0.000000
     9  C    0.000000  -0.000000   0.000000  -0.000000  -0.000000  -0.000000
    10  H    0.000000  -0.000000  -0.000000   0.000000   0.000000  -0.000000
    11  H    0.000000  -0.000000  -0.000000   0.000000  -0.000000  -0.000000
    12  H    0.000000   0.000000  -0.000000  -0.000000  -0.000000   0.000000
    13  H    0.000000   0.000000  -0.000000   0.000000  -0.000000   0.000000
    14  H   -0.000000   0.000000  -0.000000  -0.000000  -0.000000   0.000000
    15  O   -0.000000   0.000000  -0.000000   0.000000  -0.000000   0.000000
    16  H    0.000000   0.000000  -0.000000  -0.000000  -0.000000   0.000000
    17  H   -0.000000  -0.000000   0.000000   0.000000   0.000000   0.000000
              13         14         15         16         17
     1  C    0.000000  -0.000000  -0.000000  -0.000000  -0.000000
     2  C    0.000000  -0.000000   0.000000   0.000000  -0.000000
     3  C   -0.000000   0.000000   0.000000   0.000000   0.000000
     4  C   -0.000000   0.000000  -0.000000  -0.000000   0.000000
     5  C    0.000000  -0.000000  -0.000000   0.000000   0.000000
     6  C    0.000000   0.000000   0.000000   0.000000  -0.000000
     7  H    0.000000  -0.000000  -0.000000   0.000000  -0.000000
     8  C    0.000000   0.000000   0.000000   0.000000  -0.000000
     9  C   -0.000000  -0.000000  -0.000000  -0.000000   0.000000
    10  H    0.000000  -0.000000   0.000000  -0.000000   0.000000
    11  H   -0.000000  -0.000000  -0.000000  -0.000000   0.000000
    12  H    0.000000   0.000000   0.000000   0.000000   0.000000
    13  H    0.000000  -0.000000   0.000000   0.000000  -0.000000
    14  H   -0.000000   0.000000  -0.000000  -0.000000   0.000000
    15  O    0.000000  -0.000000   0.000000   0.000000   0.000000
    16  H    0.000000  -0.000000   0.000000  -0.000000   0.000000
    17  H   -0.000000   0.000000   0.000000   0.000000  -0.000000
 Mulliken charges and spin densities:
               1          2
     1  C    0.471093   0.000000
     2  C   -0.627557  -0.000000
     3  C    0.140735  -0.000000
     4  C   -0.448502  -0.000000
     5  C   -0.271728   0.000000
     6  C   -0.188833  -0.000000
     7  H    0.170204  -0.000000
     8  C   -0.124062   0.000000
     9  C   -0.211023  -0.000000
    10  H    0.175831   0.000000
    11  H    0.178197  -0.000000
    12  H    0.173808   0.000000
    13  H    0.258777  -0.000000
    14  H    0.196347   0.000000
    15  O   -0.302242   0.000000
    16  H    0.170465  -0.000000
    17  H    0.238491  -0.000000
 Sum of Mulliken charges =  -0.00000   0.00000
 Mulliken charges and spin densities with hydrogens summed into heavy atoms:
               1          2
     1  C    0.471093   0.000000
     2  C   -0.172434  -0.000000
     3  C    0.311200  -0.000000
     4  C   -0.278298  -0.000000
     5  C   -0.033237   0.000000
     6  C   -0.013003  -0.000000
     8  C    0.054135   0.000000
     9  C   -0.037215  -0.000000
    15  O   -0.302242   0.000000
 Electronic spatial extent (au):  <R**2>=           1169.8067
 Charge=              0.0000 electrons
 Dipole moment (field-independent basis, Debye):
    X=              0.6503    Y=              2.0712    Z=              0.1648  Tot=              2.1771
 Quadrupole moment (field-independent basis, Debye-Ang):
   XX=            -48.9647   YY=            -51.6567   ZZ=            -55.5408
   XY=              5.5810   XZ=              1.3386   YZ=             -1.8011
 Traceless Quadrupole moment (field-independent basis, Debye-Ang):
   XX=              3.0893   YY=              0.3974   ZZ=             -3.4867
   XY=              5.5810   XZ=              1.3386   YZ=             -1.8011
 Octapole moment (field-independent basis, Debye-Ang**2):
  XXX=              8.6820  YYY=             -0.5487  ZZZ=             -0.4353  XYY=             -4.5497
  XXY=             11.6874  XXZ=             -5.2085  XZZ=             11.9299  YZZ=             -0.5863
  YYZ=              0.4081  XYZ=             -2.2565
 Hexadecapole moment (field-independent basis, Debye-Ang**3):
 XXXX=          -1028.4032 YYYY=           -380.4544 ZZZZ=           -109.0047 XXXY=             28.3880
 XXXZ=              3.8599 YYYX=              2.4631 YYYZ=             -5.8718 ZZZX=             -3.4369
 ZZZY=              1.8201 XXYY=           -251.8855 XXZZ=           -206.0273 YYZZ=            -92.5017
 XXYZ=            -11.2494 YYXZ=              3.6569 ZZXY=             -2.1019
 N-N= 4.075529149713D+02 E-N=-1.709014152701D+03  KE= 3.815650347951D+02
                          Isotropic Fermi Contact Couplings
        Atom                 a.u.       MegaHertz       Gauss      10(-4) cm-1
     1  C(13)             -0.00000      -0.00000      -0.00000      -0.00000
     2  C(13)              0.00000       0.00000       0.00000       0.00000
     3  C(13)              0.00000       0.00000       0.00000       0.00000
     4  C(13)             -0.00000      -0.00000      -0.00000      -0.00000
     5  C(13)              0.00000       0.00000       0.00000       0.00000
     6  C(13)              0.00000       0.00000       0.00000       0.00000
     7  H(1)              -0.00000      -0.00000      -0.00000      -0.00000
     8  C(13)              0.00000       0.00000       0.00000       0.00000
     9  C(13)             -0.00000      -0.00000      -0.00000      -0.00000
    10  H(1)               0.00000       0.00000       0.00000       0.00000
    11  H(1)               0.00000       0.00000       0.00000       0.00000
    12  H(1)               0.00000       0.00000       0.00000       0.00000
    13  H(1)              -0.00000      -0.00000      -0.00000      -0.00000
    14  H(1)              -0.00000      -0.00000      -0.00000      -0.00000
    15  O(17)              0.00000      -0.00000      -0.00000      -0.00000
    16  H(1)              -0.00000      -0.00000      -0.00000      -0.00000
    17  H(1)              -0.00000      -0.00000      -0.00000      -0.00000
 --------------------------------------------------------
       Center         ----  Spin Dipole Couplings  ----
                      3XX-RR        3YY-RR        3ZZ-RR
 --------------------------------------------------------
     1   Atom        0.000000     -0.000000     -0.000000
     2   Atom       -0.000000      0.000000      0.000000
     3   Atom        0.000000     -0.000000      0.000000
     4   Atom       -0.000000     -0.000000      0.000000
     5   Atom        0.000000     -0.000000     -0.000000
     6   Atom        0.000000      0.000000     -0.000000
     7   Atom       -0.000000      0.000000     -0.000000
     8   Atom        0.000000      0.000000     -0.000000
     9   Atom       -0.000000      0.000000      0.000000
    10   Atom        0.000000     -0.000000     -0.000000
    11   Atom       -0.000000      0.000000      0.000000
    12   Atom       -0.000000      0.000000      0.000000
    13   Atom       -0.000000     -0.000000      0.000000
    14   Atom       -0.000000      0.000000     -0.000000
    15   Atom       -0.000000      0.000000      0.000000
    16   Atom        0.000000      0.000000     -0.000000
    17   Atom        0.000000      0.000000     -0.000000
 --------------------------------------------------------
                        XY            XZ            YZ
 --------------------------------------------------------
     1   Atom       -0.000000      0.000000     -0.000000
     2   Atom        0.000000      0.000000      0.000000
     3   Atom        0.000000     -0.000000     -0.000000
     4   Atom        0.000000      0.000000      0.000000
     5   Atom        0.000000      0.000000      0.000000
     6   Atom        0.000000      0.000000      0.000000
     7   Atom       -0.000000     -0.000000     -0.000000
     8   Atom        0.000000     -0.000000      0.000000
     9   Atom        0.000000      0.000000      0.000000
    10   Atom        0.000000     -0.000000      0.000000
    11   Atom       -0.000000     -0.000000     -0.000000
    12   Atom       -0.000000      0.000000      0.000000
    13   Atom        0.000000      0.000000      0.000000
    14   Atom       -0.000000      0.000000      0.000000
    15   Atom       -0.000000     -0.000000      0.000000
    16   Atom        0.000000     -0.000000     -0.000000
    17   Atom       -0.000000     -0.000000      0.000000
 --------------------------------------------------------


 ---------------------------------------------------------------------------------
              Anisotropic Spin Dipole Couplings in Principal Axis System
 ---------------------------------------------------------------------------------

       Atom             a.u.   MegaHertz   Gauss  10(-4) cm-1        Axes

              Baa    -0.0000    -0.000    -0.000    -0.000  0.6491  0.6782 -0.3447
     1 C(13)  Bbb    -0.0000    -0.000    -0.000    -0.000  0.0351  0.4259  0.9041
              Bcc     0.0000     0.000     0.000     0.000  0.7599 -0.5989  0.2526
 
              Baa    -0.0000    -0.000    -0.000    -0.000  0.8603 -0.2114 -0.4639
     2 C(13)  Bbb    -0.0000    -0.000    -0.000    -0.000  0.2190 -0.6684  0.7108
              Bcc     0.0000     0.000     0.000     0.000  0.4604  0.7131  0.5288
 
              Baa    -0.0000    -0.000    -0.000    -0.000  0.6273 -0.3625  0.6892
     3 C(13)  Bbb    -0.0000    -0.000    -0.000    -0.000  0.1636  0.9266  0.3385
              Bcc     0.0000     0.000     0.000     0.000  0.7614  0.0996 -0.6406
 
              Baa    -0.0000    -0.000    -0.000    -0.000 -0.4888  0.8396 -0.2371
     4 C(13)  Bbb    -0.0000    -0.000    -0.000    -0.000  0.8413  0.3816 -0.3829
              Bcc     0.0000     0.000     0.000     0.000  0.2310  0.3866  0.8928
 
              Baa    -0.0000    -0.000    -0.000    -0.000 -0.2942  0.4475  0.8445
     5 C(13)  Bbb    -0.0000    -0.000    -0.000    -0.000 -0.0145  0.8814 -0.4721
              Bcc     0.0000     0.000     0.000     0.000  0.9556  0.1512  0.2528
 
              Baa    -0.0000    -0.000    -0.000    -0.000 -0.4328  0.1929  0.8806
     6 C(13)  Bbb    -0.0000    -0.000    -0.000    -0.000 -0.5932  0.6747 -0.4393
              Bcc     0.0000     0.000     0.000     0.000  0.6789  0.7125  0.1775
 
              Baa    -0.0000    -0.000    -0.000    -0.000  0.9128  0.2364  0.3331
     7 H(1)   Bbb    -0.0000    -0.000    -0.000    -0.000 -0.3916  0.2745  0.8783
              Bcc     0.0000     0.000     0.000     0.000 -0.1162  0.9321 -0.3431
 
              Baa    -0.0000    -0.000    -0.000    -0.000 -0.5837  0.6552 -0.4796
     8 C(13)  Bbb    -0.0000    -0.000    -0.000    -0.000 -0.3825  0.2991  0.8742
              Bcc     0.0000     0.000     0.000     0.000  0.7162  0.6937  0.0760
 
              Baa    -0.0000    -0.000    -0.000    -0.000  0.8060  0.3052 -0.5071
     9 C(13)  Bbb    -0.0000    -0.000    -0.000    -0.000 -0.5149  0.7842 -0.3463
              Bcc     0.0000     0.000     0.000     0.000  0.2920  0.5402  0.7892
 
              Baa    -0.0000    -0.000    -0.000    -0.000 -0.5639  0.6246 -0.5402
    10 H(1)   Bbb     0.0000     0.000     0.000     0.000 -0.2596  0.4870  0.8340
              Bcc     0.0000     0.000     0.000     0.000  0.7840  0.6105 -0.1125
 
              Baa    -0.0000    -0.000    -0.000    -0.000  0.8471  0.3995  0.3506
    11 H(1)   Bbb    -0.0000    -0.000    -0.000    -0.000 -0.5256  0.5321  0.6638
              Bcc     0.0000     0.000     0.000     0.000 -0.0786  0.7465 -0.6607
 
              Baa    -0.0000    -0.000    -0.000    -0.000  0.9751  0.0921 -0.2016
    12 H(1)   Bbb     0.0000     0.000     0.000     0.000  0.2216 -0.4227  0.8788
              Bcc     0.0000     0.000     0.000     0.000  0.0043  0.9016  0.4326
 
              Baa    -0.0000    -0.000    -0.000    -0.000  0.7722 -0.6222  0.1286
    13 H(1)   Bbb     0.0000     0.000     0.000     0.000  0.6198  0.6931 -0.3680
              Bcc     0.0000     0.000     0.000     0.000  0.1399  0.3639  0.9209
 
              Baa    -0.0000    -0.000    -0.000    -0.000  0.8185  0.2503 -0.5171
    14 H(1)   Bbb     0.0000     0.000     0.000     0.000  0.4741  0.2143  0.8540
              Bcc     0.0000     0.000     0.000     0.000 -0.3245  0.9442 -0.0567
 
              Baa    -0.0000     0.000     0.000     0.000  0.9416  0.2397  0.2363
    15 O(17)  Bbb     0.0000    -0.000    -0.000    -0.000 -0.0888  0.8542 -0.5124
              Bcc     0.0000    -0.000    -0.000    -0.000 -0.3247  0.4615  0.8256
 
              Baa    -0.0000    -0.000    -0.000    -0.000 -0.0081  0.1844  0.9828
    16 H(1)   Bbb    -0.0000    -0.000    -0.000    -0.000  0.7498 -0.6492  0.1280
              Bcc     0.0000     0.000     0.000     0.000  0.6617  0.7379 -0.1331
 
              Baa    -0.0000    -0.000    -0.000    -0.000  0.1867  0.1497  0.9709
    17 H(1)   Bbb    -0.0000    -0.000    -0.000    -0.000  0.6643  0.7089 -0.2370
              Bcc     0.0000     0.000     0.000     0.000  0.7238 -0.6892 -0.0329
 

 ---------------------------------------------------------------------------------

 1\1\GINC-NODE31\SP\UB3LYP\6-31+G(d)\C8H8O1\YANZ\12-Oct-2023\0\\# ub3ly
 p/6-31+g(d)\\tmpdir/M3_ref_7.gjf\\0,1\C,0,0.35803021,-0.69509548,-0.06
 228099\C,0,-1.0330974,-1.3184176,-0.02875126\C,0,-1.85834667,-0.682552
 4,-1.1348603\C,0,1.5691386,-1.37271489,-0.06897614\C,0,0.33039499,0.70
 663737,-0.01689504\C,0,2.76086323,-0.64577722,-0.05543502\H,0,1.587815
 92,-2.45944017,-0.09245997\C,0,1.51456879,1.42595753,0.00431597\C,0,2.
 73397309,0.74492017,-0.01998226\H,0,3.71236256,-1.16918432,-0.07323601
 \H,0,1.49361496,2.51222136,0.0410451\H,0,3.66448683,1.30480451,-0.0092
 1086\H,0,-1.41477893,-0.93071278,0.93497418\H,0,-0.99835638,-2.4091439
 9,-0.07674181\O,0,-1.87094255,0.49574382,-1.12078459\H,0,-2.40082691,-
 1.28897047,-1.85186107\H,0,-0.68507474,1.12345238,0.01035115\\Version=
 ES64L-G16RevA.03\State=1-A\HF=-384.861514\S2=0.\S2-1=0.\S2A=0.\RMSD=3.
 564e-09\Dipole=-0.1558421,-0.8381551,0.0829251\Quadrupole=1.478801,1.6
 359605,-3.1147615,3.9176249,-0.5639077,1.7589444\PG=C01 [X(C8H8O1)]\\@


 A MAN SHOULD NEVER BE ASHAMED TO OWN HE HAS BEEN IN THE WRONG
 WHICH IS BUT SAYING IN OTHER WORDS,
 THAT HE IS WISER TODAY THAN HE WAS YESTERDAY.

                          -- JONATHAN SWIFT
 Job cpu time:       0 days  0 hours  5 minutes 25.0 seconds.
 Elapsed time:       0 days  0 hours  1 minutes 29.8 seconds.
 File lengths (MBytes):  RWF=     27 Int=      0 D2E=      0 Chk=      4 Scr=      1
 Normal termination of Gaussian 16 at Thu Oct 12 15:25:35 2023.
