 Entering Gaussian System, Link 0=g16
 Initial command:
 /share/apps/gaussian/g16/l1.exe "/tmp/58287.mgr/Gau-20751.inp" -scrdir="/tmp/58287.mgr/"
 Entering Link 1 = /share/apps/gaussian/g16/l1.exe PID=     20752.
  
 Copyright (c) 1988,1990,1992,1993,1995,1998,2003,2009,2016,
            Gaussian, Inc.  All Rights Reserved.
  
 This is part of the Gaussian(R) 16 program.  It is based on
 the Gaussian(R) 09 system (copyright 2009, Gaussian, Inc.),
 the Gaussian(R) 03 system (copyright 2003, Gaussian, Inc.),
 the Gaussian(R) 98 system (copyright 1998, Gaussian, Inc.),
 the Gaussian(R) 94 system (copyright 1995, Gaussian, Inc.),
 the Gaussian 92(TM) system (copyright 1992, Gaussian, Inc.),
 the Gaussian 90(TM) system (copyright 1990, Gaussian, Inc.),
 the Gaussian 88(TM) system (copyright 1988, Gaussian, Inc.),
 the Gaussian 86(TM) system (copyright 1986, Carnegie Mellon
 University), and the Gaussian 82(TM) system (copyright 1983,
 Carnegie Mellon University). Gaussian is a federally registered
 trademark of Gaussian, Inc.
  
 This software contains proprietary and confidential information,
 including trade secrets, belonging to Gaussian, Inc.
  
 This software is provided under written license and may be
 used, copied, transmitted, or stored only in accord with that
 written license.
  
 The following legend is applicable only to US Government
 contracts under FAR:
  
                    RESTRICTED RIGHTS LEGEND
  
 Use, reproduction and disclosure by the US Government is
 subject to restrictions as set forth in subparagraphs (a)
 and (c) of the Commercial Computer Software - Restricted
 Rights clause in FAR 52.227-19.
  
 Gaussian, Inc.
 340 Quinnipiac St., Bldg. 40, Wallingford CT 06492
  
  
 ---------------------------------------------------------------
 Warning -- This program may not be used in any manner that
 competes with the business of Gaussian, Inc. or will provide
 assistance to any competitor of Gaussian, Inc.  The licensee
 of this program is prohibited from giving any competitor of
 Gaussian, Inc. access to this program.  By using this program,
 the user acknowledges that Gaussian, Inc. is engaged in the
 business of creating and licensing software in the field of
 computational chemistry and represents and warrants to the
 licensee that it is not a competitor of Gaussian, Inc. and that
 it will not use this program in any manner prohibited above.
 ---------------------------------------------------------------
  

 Cite this work as:
 Gaussian 16, Revision A.03,
 M. J. Frisch, G. W. Trucks, H. B. Schlegel, G. E. Scuseria, 
 M. A. Robb, J. R. Cheeseman, G. Scalmani, V. Barone, 
 G. A. Petersson, H. Nakatsuji, X. Li, M. Caricato, A. V. Marenich, 
 J. Bloino, B. G. Janesko, R. Gomperts, B. Mennucci, H. P. Hratchian, 
 J. V. Ortiz, A. F. Izmaylov, J. L. Sonnenberg, D. Williams-Young, 
 F. Ding, F. Lipparini, F. Egidi, J. Goings, B. Peng, A. Petrone, 
 T. Henderson, D. Ranasinghe, V. G. Zakrzewski, J. Gao, N. Rega, 
 G. Zheng, W. Liang, M. Hada, M. Ehara, K. Toyota, R. Fukuda, 
 J. Hasegawa, M. Ishida, T. Nakajima, Y. Honda, O. Kitao, H. Nakai, 
 T. Vreven, K. Throssell, J. A. Montgomery, Jr., J. E. Peralta, 
 F. Ogliaro, M. J. Bearpark, J. J. Heyd, E. N. Brothers, K. N. Kudin, 
 V. N. Staroverov, T. A. Keith, R. Kobayashi, J. Normand, 
 K. Raghavachari, A. P. Rendell, J. C. Burant, S. S. Iyengar, 
 J. Tomasi, M. Cossi, J. M. Millam, M. Klene, C. Adamo, R. Cammi, 
 J. W. Ochterski, R. L. Martin, K. Morokuma, O. Farkas, 
 J. B. Foresman, and D. J. Fox, Gaussian, Inc., Wallingford CT, 2016.
 
 ******************************************
 Gaussian 16:  ES64L-G16RevA.03 25-Dec-2016
                12-Oct-2023 
 ******************************************
 %nprocshared=4
 Will use up to    4 processors via shared memory.
 %mem=4GB
 ------------------
 # ub3lyp/6-31+g(d)
 ------------------
 1/38=1,172=1/1;
 2/12=2,17=6,18=5,40=1/2;
 3/5=1,6=6,7=11,11=2,25=1,30=1,74=-5,116=2/1,2,3;
 4//1;
 5/5=2,38=5/2;
 6/7=2,8=2,9=2,10=2,28=1/1;
 99/5=1,9=1/99;
 --------------------
 tmpdir/M3_ref_14.gjf
 --------------------
 Symbolic Z-matrix:
 Charge =  0 Multiplicity = 2
 C                     0.33039   0.70664  -0.0169 
 C                    -1.07241   1.28244   0.02074 
 C                    -1.80409   0.68399   1.22254 
 C                     0.35803  -0.6951   -0.06228 
 C                     1.51457   1.42596   0.00432 
 C                     1.56914  -1.37271  -0.06898 
 C                     2.73397   0.74492  -0.01998 
 H                     1.49361   2.51222   0.04105 
 C                     2.76086  -0.64578  -0.05544 
 H                     1.58782  -2.45944  -0.09246 
 H                     3.66449   1.3048   -0.00921 
 H                     3.71236  -1.16918  -0.07324 
 H                    -1.08735   2.3742    0.0001 
 H                    -1.65168   0.8275   -0.80422 
 H                    -1.62766  -0.37782   1.28047 
 H                    -2.80968   1.06898   1.39914 
 H                    -0.64899  -1.14631  -0.03801 
 
                          Input orientation:                          
 ---------------------------------------------------------------------
 Center     Atomic      Atomic             Coordinates (Angstroms)
 Number     Number       Type             X           Y           Z
 ---------------------------------------------------------------------
      1          6           0        0.330395    0.706637   -0.016895
      2          6           0       -1.072408    1.282439    0.020744
      3          6           0       -1.804086    0.683985    1.222538
      4          6           0        0.358030   -0.695095   -0.062281
      5          6           0        1.514569    1.425958    0.004316
      6          6           0        1.569139   -1.372715   -0.068976
      7          6           0        2.733973    0.744920   -0.019982
      8          1           0        1.493615    2.512221    0.041045
      9          6           0        2.760863   -0.645777   -0.055435
     10          1           0        1.587816   -2.459440   -0.092460
     11          1           0        3.664487    1.304805   -0.009211
     12          1           0        3.712363   -1.169184   -0.073236
     13          1           0       -1.087345    2.374200    0.000102
     14          1           0       -1.651680    0.827496   -0.804224
     15          1           0       -1.627660   -0.377821    1.280473
     16          1           0       -2.809675    1.068982    1.399139
     17          1           0       -0.648988   -1.146310   -0.038009
 ---------------------------------------------------------------------
                    Distance matrix (angstroms):
                    1          2          3          4          5
     1  C    0.000000
     2  C    1.516846   0.000000
     3  C    2.468343   1.528989   0.000000
     4  C    1.402740   2.442067   2.868339   0.000000
     5  C    1.385691   2.591007   3.612209   2.416792   0.000000
     6  C    2.420930   3.746420   4.156521   1.387803   2.800164
     7  C    2.403885   3.844363   4.705481   2.778586   1.396907
     8  H    2.148621   2.845567   3.951354   3.403984   1.087087
     9  C    2.781670   4.291596   4.923438   2.403349   2.418451
    10  H    3.407472   4.592523   4.807842   2.150859   3.887293
    11  H    3.387334   4.737043   5.639850   3.864592   2.153371
    12  H    3.867762   5.377111   5.961918   3.387687   3.401628
    13  H    2.188845   1.092058   2.205650   3.393167   2.769321
    14  H    2.136145   1.105939   2.037544   2.628251   3.322202
    15  H    2.587120   2.156777   1.077922   2.417977   3.841327
    16  H    3.463594   2.227921   1.091156   3.909230   4.557636
    17  H    2.095960   2.466082   2.504638   1.103752   3.361447
                    6          7          8          9         10
     6  C    0.000000
     7  C    2.417358   0.000000
     8  H    3.887228   2.159992   0.000000
     9  C    1.396005   1.391409   3.404142   0.000000
    10  H    1.087139   3.403947   4.974346   2.160274   0.000000
    11  H    3.400466   1.086021   2.484566   2.150219   4.299887
    12  H    2.152871   2.150320   4.299843   1.086104   2.485725
    13  H    4.593588   4.154207   2.584973   4.892040   5.525318
    14  H    3.969281   4.455986   3.666833   4.711875   4.669571
    15  H    3.609757   4.687811   4.430675   4.595169   4.069074
    16  H    5.224103   5.731575   4.737685   6.007253   5.832029
    17  H    2.229866   3.875758   4.240500   3.446436   2.594334
                   11         12         13         14         15
    11  H    0.000000
    12  H    2.475280   0.000000
    13  H    4.870688   5.966419   0.000000
    14  H    5.396434   5.770098   1.832405   0.000000
    15  H    5.700994   5.565485   3.083003   2.408180   0.000000
    16  H    6.629769   7.050834   2.574357   2.500815   1.872027
    17  H    4.961336   4.361552   3.547901   2.342731   1.812944
                   16         17
    16  H    0.000000
    17  H    3.411962   0.000000
 Stoichiometry    C8H9(2)
 Framework group  C1[X(C8H9)]
 Deg. of freedom    45
 Full point group                 C1      NOp   1
 Largest Abelian subgroup         C1      NOp   1
 Largest concise Abelian subgroup C1      NOp   1
                         Standard orientation:                         
 ---------------------------------------------------------------------
 Center     Atomic      Atomic             Coordinates (Angstroms)
 Number     Number       Type             X           Y           Z
 ---------------------------------------------------------------------
      1          6           0        0.462071    0.318318    0.213652
      2          6           0        1.956553    0.493719    0.404910
      3          6           0        2.676603   -0.341271   -0.654395
      4          6           0        0.045540   -1.020196    0.264265
      5          6           0       -0.461660    1.326918   -0.009024
      6          6           0       -1.289994   -1.346603    0.075045
      7          6           0       -1.808774    1.000372   -0.182236
      8          1           0       -0.139065    2.364233   -0.049859
      9          6           0       -2.220016   -0.328247   -0.141377
     10          1           0       -1.608468   -2.385667    0.103200
     11          1           0       -2.537026    1.788083   -0.351359
     12          1           0       -3.268796   -0.575411   -0.277736
     13          1           0        2.265904    1.540943    0.419611
     14          1           0        2.251923   -0.056117    1.317893
     15          1           0        2.228074   -1.318296   -0.732879
     16          1           0        3.763894   -0.250080   -0.664630
     17          1           0        0.881614   -1.725747    0.410711
 ---------------------------------------------------------------------
 Rotational constants (GHZ):           4.6435997           1.5891330           1.2575353
 Standard basis: 6-31+G(d) (6D, 7F)
 There are   170 symmetry adapted cartesian basis functions of A   symmetry.
 There are   170 symmetry adapted basis functions of A   symmetry.
   170 basis functions,   292 primitive gaussians,   170 cartesian basis functions
    29 alpha electrons       28 beta electrons
       nuclear repulsion energy       331.8245461300 Hartrees.
 NAtoms=   17 NActive=   17 NUniq=   17 SFac= 1.00D+00 NAtFMM=   60 NAOKFM=F Big=F
 Integral buffers will be    131072 words long.
 Raffenetti 2 integral format.
 Two-electron integral symmetry is turned on.
 One-electron integrals computed using PRISM.
 NBasis=   170 RedAO= T EigKep=  4.35D-06  NBF=   170
 NBsUse=   170 1.00D-06 EigRej= -1.00D+00 NBFU=   170
 ExpMin= 4.38D-02 ExpMax= 3.05D+03 ExpMxC= 4.57D+02 IAcc=3 IRadAn=         5 AccDes= 0.00D+00
 Harris functional with IExCor=  402 and IRadAn=       5 diagonalized for initial guess.
 HarFok:  IExCor=  402 AccDes= 0.00D+00 IRadAn=         5 IDoV= 1 UseB2=F ITyADJ=14
 ICtDFT=  3500011 ScaDFX=  1.000000  1.000000  1.000000  1.000000
 FoFCou: FMM=F IPFlag=           0 FMFlag=      100000 FMFlg1=           0
         NFxFlg=           0 DoJE=T BraDBF=F KetDBF=T FulRan=T
         wScrn=  0.000000 ICntrl=       500 IOpCl=  0 I1Cent=   200000004 NGrid=           0
         NMat0=    1 NMatS0=      1 NMatT0=    0 NMatD0=    1 NMtDS0=    0 NMtDT0=    0
 Petite list used in FoFCou.
 Initial guess <Sx>= 0.0000 <Sy>= 0.0000 <Sz>= 0.5000 <S**2>= 0.7500 S= 0.5000
 Keep R1 and R2 ints in memory in canonical form, NReq=215266213.
 Requested convergence on RMS density matrix=1.00D-08 within 128 cycles.
 Requested convergence on MAX density matrix=1.00D-06.
 Requested convergence on             energy=1.00D-06.
 No special actions if energy rises.
 SCF Done:  E(UB3LYP) =  -310.201941629     A.U. after   17 cycles
            NFock= 17  Conv=0.61D-08     -V/T= 2.0097
 <Sx>= 0.0000 <Sy>= 0.0000 <Sz>= 0.5000 <S**2>= 0.7532 S= 0.5016
 <L.S>= 0.000000000000E+00
 Annihilation of the first spin contaminant:
 S**2 before annihilation     0.7532,   after     0.7500

 **********************************************************************

            Population analysis using the SCF density.

 **********************************************************************

 Orbital symmetries:
 Alpha Orbitals:
       Occupied  (A) (A) (A) (A) (A) (A) (A) (A) (A) (A) (A) (A)
                 (A) (A) (A) (A) (A) (A) (A) (A) (A) (A) (A) (A)
                 (A) (A) (A) (A) (A)
       Virtual   (A) (A) (A) (A) (A) (A) (A) (A) (A) (A) (A) (A)
                 (A) (A) (A) (A) (A) (A) (A) (A) (A) (A) (A) (A)
                 (A) (A) (A) (A) (A) (A) (A) (A) (A) (A) (A) (A)
                 (A) (A) (A) (A) (A) (A) (A) (A) (A) (A) (A) (A)
                 (A) (A) (A) (A) (A) (A) (A) (A) (A) (A) (A) (A)
                 (A) (A) (A) (A) (A) (A) (A) (A) (A) (A) (A) (A)
                 (A) (A) (A) (A) (A) (A) (A) (A) (A) (A) (A) (A)
                 (A) (A) (A) (A) (A) (A) (A) (A) (A) (A) (A) (A)
                 (A) (A) (A) (A) (A) (A) (A) (A) (A) (A) (A) (A)
                 (A) (A) (A) (A) (A) (A) (A) (A) (A) (A) (A) (A)
                 (A) (A) (A) (A) (A) (A) (A) (A) (A) (A) (A) (A)
                 (A) (A) (A) (A) (A) (A) (A) (A) (A)
 Beta  Orbitals:
       Occupied  (A) (A) (A) (A) (A) (A) (A) (A) (A) (A) (A) (A)
                 (A) (A) (A) (A) (A) (A) (A) (A) (A) (A) (A) (A)
                 (A) (A) (A) (A)
       Virtual   (A) (A) (A) (A) (A) (A) (A) (A) (A) (A) (A) (A)
                 (A) (A) (A) (A) (A) (A) (A) (A) (A) (A) (A) (A)
                 (A) (A) (A) (A) (A) (A) (A) (A) (A) (A) (A) (A)
                 (A) (A) (A) (A) (A) (A) (A) (A) (A) (A) (A) (A)
                 (A) (A) (A) (A) (A) (A) (A) (A) (A) (A) (A) (A)
                 (A) (A) (A) (A) (A) (A) (A) (A) (A) (A) (A) (A)
                 (A) (A) (A) (A) (A) (A) (A) (A) (A) (A) (A) (A)
                 (A) (A) (A) (A) (A) (A) (A) (A) (A) (A) (A) (A)
                 (A) (A) (A) (A) (A) (A) (A) (A) (A) (A) (A) (A)
                 (A) (A) (A) (A) (A) (A) (A) (A) (A) (A) (A) (A)
                 (A) (A) (A) (A) (A) (A) (A) (A) (A) (A) (A) (A)
                 (A) (A) (A) (A) (A) (A) (A) (A) (A) (A)
 The electronic state is 2-A.
 Alpha  occ. eigenvalues --  -10.20368 -10.20223 -10.20053 -10.19707 -10.19565
 Alpha  occ. eigenvalues --  -10.19358 -10.19334 -10.19291  -0.86539  -0.79808
 Alpha  occ. eigenvalues --   -0.75071  -0.72344  -0.63144  -0.61292  -0.57688
 Alpha  occ. eigenvalues --   -0.52123  -0.47414  -0.46088  -0.44093  -0.43126
 Alpha  occ. eigenvalues --   -0.41966  -0.39832  -0.38355  -0.36075  -0.34683
 Alpha  occ. eigenvalues --   -0.33728  -0.25717  -0.24700  -0.22123
 Alpha virt. eigenvalues --   -0.01703  -0.00985   0.00537   0.01857   0.02029
 Alpha virt. eigenvalues --    0.03529   0.03958   0.04526   0.06185   0.06543
 Alpha virt. eigenvalues --    0.07004   0.07392   0.07848   0.09626   0.10458
 Alpha virt. eigenvalues --    0.10856   0.11520   0.12565   0.12870   0.14242
 Alpha virt. eigenvalues --    0.14936   0.15500   0.15878   0.16376   0.17232
 Alpha virt. eigenvalues --    0.17508   0.18175   0.19463   0.19942   0.20915
 Alpha virt. eigenvalues --    0.21451   0.21801   0.23022   0.23687   0.24004
 Alpha virt. eigenvalues --    0.24337   0.25344   0.25575   0.26536   0.27494
 Alpha virt. eigenvalues --    0.28247   0.29140   0.29759   0.31480   0.33432
 Alpha virt. eigenvalues --    0.34542   0.35531   0.36110   0.39072   0.40316
 Alpha virt. eigenvalues --    0.56187   0.60153   0.61636   0.65392   0.67462
 Alpha virt. eigenvalues --    0.67999   0.68476   0.69528   0.71149   0.72391
 Alpha virt. eigenvalues --    0.72577   0.74188   0.74266   0.75517   0.77610
 Alpha virt. eigenvalues --    0.78037   0.80198   0.82040   0.84981   0.87554
 Alpha virt. eigenvalues --    0.89215   0.93054   0.93160   0.93887   0.96591
 Alpha virt. eigenvalues --    1.00377   1.01615   1.02801   1.03969   1.05341
 Alpha virt. eigenvalues --    1.08353   1.09673   1.11135   1.11958   1.16547
 Alpha virt. eigenvalues --    1.17457   1.21080   1.23570   1.27821   1.32796
 Alpha virt. eigenvalues --    1.41611   1.42828   1.43812   1.47522   1.49388
 Alpha virt. eigenvalues --    1.49504   1.51643   1.54644   1.68227   1.77157
 Alpha virt. eigenvalues --    1.82870   1.85294   1.87004   1.90776   1.91815
 Alpha virt. eigenvalues --    1.96074   1.98679   2.01339   2.03580   2.10432
 Alpha virt. eigenvalues --    2.12065   2.15370   2.15900   2.18261   2.20807
 Alpha virt. eigenvalues --    2.24112   2.28329   2.30101   2.31743   2.36391
 Alpha virt. eigenvalues --    2.37290   2.47415   2.59097   2.61394   2.64585
 Alpha virt. eigenvalues --    2.66593   2.74394   2.75346   2.75939   2.79708
 Alpha virt. eigenvalues --    2.91947   3.08069   3.41224   4.18713   4.24192
 Alpha virt. eigenvalues --    4.24874   4.29009   4.37272   4.39597   4.49643
 Alpha virt. eigenvalues --    4.72118
  Beta  occ. eigenvalues --  -10.20258 -10.20025 -10.19704 -10.19562 -10.19362
  Beta  occ. eigenvalues --  -10.19338 -10.19295 -10.18973  -0.86468  -0.79185
  Beta  occ. eigenvalues --   -0.75064  -0.71415  -0.62008  -0.60911  -0.57041
  Beta  occ. eigenvalues --   -0.52047  -0.47061  -0.45890  -0.43619  -0.42791
  Beta  occ. eigenvalues --   -0.41460  -0.39445  -0.37908  -0.35844  -0.34458
  Beta  occ. eigenvalues --   -0.33653  -0.25720  -0.24525
  Beta virt. eigenvalues --   -0.06636  -0.01667  -0.00938   0.00578   0.01904
  Beta virt. eigenvalues --    0.02083   0.03639   0.03978   0.04629   0.06421
  Beta virt. eigenvalues --    0.06636   0.07094   0.07469   0.08097   0.09804
  Beta virt. eigenvalues --    0.10671   0.10978   0.11929   0.12668   0.12921
  Beta virt. eigenvalues --    0.14280   0.15109   0.15566   0.15890   0.16562
  Beta virt. eigenvalues --    0.17284   0.17544   0.18191   0.19682   0.20043
  Beta virt. eigenvalues --    0.21106   0.21558   0.21910   0.23114   0.23824
  Beta virt. eigenvalues --    0.24128   0.24584   0.25752   0.25959   0.26610
  Beta virt. eigenvalues --    0.27909   0.28412   0.29847   0.29917   0.31640
  Beta virt. eigenvalues --    0.33689   0.34868   0.35548   0.36362   0.39206
  Beta virt. eigenvalues --    0.40682   0.56252   0.60278   0.61958   0.65913
  Beta virt. eigenvalues --    0.67675   0.68559   0.68941   0.71120   0.71824
  Beta virt. eigenvalues --    0.72540   0.73763   0.74276   0.75236   0.76074
  Beta virt. eigenvalues --    0.77959   0.78159   0.80442   0.82196   0.85378
  Beta virt. eigenvalues --    0.88094   0.89256   0.93098   0.93370   0.93935
  Beta virt. eigenvalues --    0.96632   1.00541   1.01873   1.03113   1.04582
  Beta virt. eigenvalues --    1.06584   1.08546   1.09984   1.11592   1.12586
  Beta virt. eigenvalues --    1.16704   1.18313   1.21138   1.23814   1.28161
  Beta virt. eigenvalues --    1.32901   1.42283   1.42988   1.43873   1.47594
  Beta virt. eigenvalues --    1.49425   1.49902   1.51668   1.55009   1.70903
  Beta virt. eigenvalues --    1.78815   1.83386   1.85586   1.87265   1.91346
  Beta virt. eigenvalues --    1.94454   1.96273   1.99202   2.02301   2.05713
  Beta virt. eigenvalues --    2.11015   2.12200   2.15570   2.16193   2.19120
  Beta virt. eigenvalues --    2.21726   2.26565   2.28755   2.30636   2.32011
  Beta virt. eigenvalues --    2.36629   2.37480   2.47966   2.59500   2.61610
  Beta virt. eigenvalues --    2.65047   2.66941   2.74401   2.75362   2.75997
  Beta virt. eigenvalues --    2.79795   2.92004   3.08114   3.41236   4.20965
  Beta virt. eigenvalues --    4.24293   4.25060   4.29277   4.37502   4.39794
  Beta virt. eigenvalues --    4.49956   4.72141
          Condensed to atoms (all electrons):
               1          2          3          4          5          6
     1  C    9.374119  -0.741858  -0.109279  -0.551133  -1.304565  -0.044876
     2  C   -0.741858   6.402177   0.141905  -0.171839   0.357824  -0.097492
     3  C   -0.109279   0.141905   5.563938   0.084096  -0.007737   0.005505
     4  C   -0.551133  -0.171839   0.084096  10.655726  -4.066621  -0.108324
     5  C   -1.304565   0.357824  -0.007737  -4.066621  10.378371   0.165356
     6  C   -0.044876  -0.097492   0.005505  -0.108324   0.165356   5.755311
     7  C   -0.325385  -0.021566  -0.006148  -0.087502   0.529355  -0.206507
     8  H    0.026267  -0.010732   0.001550   0.034316   0.212011  -0.011392
     9  C   -0.546564  -0.014860   0.008751   0.240873   0.014502   0.432134
    10  H    0.020578  -0.000120   0.000050  -0.011717  -0.006367   0.285819
    11  H    0.027838  -0.001386   0.000144  -0.008660  -0.031820   0.011356
    12  H   -0.004496   0.001222  -0.000046   0.011823   0.012175  -0.015908
    13  H   -0.172801   0.468072  -0.024082  -0.028622   0.055479  -0.001717
    14  H   -0.037381   0.423903  -0.087528   0.026524  -0.044521  -0.009228
    15  H   -0.079494  -0.013720   0.409477   0.005723  -0.023330   0.021517
    16  H    0.032154  -0.105769   0.384400   0.023478  -0.005120   0.001310
    17  H    0.083694   0.007485  -0.006120   0.126644   0.039731   0.016182
               7          8          9         10         11         12
     1  C   -0.325385   0.026267  -0.546564   0.020578   0.027838  -0.004496
     2  C   -0.021566  -0.010732  -0.014860  -0.000120  -0.001386   0.001222
     3  C   -0.006148   0.001550   0.008751   0.000050   0.000144  -0.000046
     4  C   -0.087502   0.034316   0.240873  -0.011717  -0.008660   0.011823
     5  C    0.529355   0.212011   0.014502  -0.006367  -0.031820   0.012175
     6  C   -0.206507  -0.011392   0.432134   0.285819   0.011356  -0.015908
     7  C    5.458418   0.011628   0.557093   0.009129   0.298484   0.002021
     8  H    0.011628   0.551599   0.012915   0.000019  -0.004666  -0.000158
     9  C    0.557093   0.012915   5.184654  -0.007205  -0.004139   0.285540
    10  H    0.009129   0.000019  -0.007205   0.541014  -0.000165  -0.004985
    11  H    0.298484  -0.004666  -0.004139  -0.000165   0.540552  -0.005086
    12  H    0.002021  -0.000158   0.285540  -0.004985  -0.005086   0.542365
    13  H    0.007805   0.003683   0.001570   0.000002  -0.000001  -0.000000
    14  H   -0.003622   0.000010   0.000230  -0.000004   0.000003  -0.000000
    15  H    0.001122   0.000006  -0.004699   0.000026   0.000000  -0.000000
    16  H   -0.000135  -0.000007   0.000581  -0.000000  -0.000000  -0.000000
    17  H    0.004284  -0.000193  -0.013720  -0.004240   0.000018  -0.000144
              13         14         15         16         17
     1  C   -0.172801  -0.037381  -0.079494   0.032154   0.083694
     2  C    0.468072   0.423903  -0.013720  -0.105769   0.007485
     3  C   -0.024082  -0.087528   0.409477   0.384400  -0.006120
     4  C   -0.028622   0.026524   0.005723   0.023478   0.126644
     5  C    0.055479  -0.044521  -0.023330  -0.005120   0.039731
     6  C   -0.001717  -0.009228   0.021517   0.001310   0.016182
     7  C    0.007805  -0.003622   0.001122  -0.000135   0.004284
     8  H    0.003683   0.000010   0.000006  -0.000007  -0.000193
     9  C    0.001570   0.000230  -0.004699   0.000581  -0.013720
    10  H    0.000002  -0.000004   0.000026  -0.000000  -0.004240
    11  H   -0.000001   0.000003   0.000000  -0.000000   0.000018
    12  H   -0.000000  -0.000000  -0.000000  -0.000000  -0.000144
    13  H    0.514355  -0.027054   0.004171  -0.002618   0.000393
    14  H   -0.027054   0.527426  -0.001680  -0.000034   0.000060
    15  H    0.004171  -0.001680   0.532699  -0.030940   0.006419
    16  H   -0.002618  -0.000034  -0.030940   0.521116  -0.000102
    17  H    0.000393   0.000060   0.006419  -0.000102   0.579142
          Atomic-Atomic Spin Densities.
               1          2          3          4          5          6
     1  C    0.394988   0.082504  -0.008923   0.009849  -0.242769   0.008264
     2  C    0.082504  -0.030789  -0.139290   0.016010  -0.067722   0.030870
     3  C   -0.008923  -0.139290   1.294751  -0.043623   0.051150  -0.010549
     4  C    0.009849   0.016010  -0.043623   0.029617   0.029403  -0.059271
     5  C   -0.242769  -0.067722   0.051150   0.029403   0.113017   0.029912
     6  C    0.008264   0.030870  -0.010549  -0.059271   0.029912   0.004717
     7  C   -0.053142   0.006950  -0.004532  -0.009069   0.017848   0.000806
     8  H    0.002498  -0.000327   0.000020  -0.000314  -0.001608   0.000257
     9  C   -0.108414  -0.007047   0.006531   0.022052   0.030353  -0.009348
    10  H    0.000575  -0.000021  -0.000122  -0.000183  -0.000506   0.000039
    11  H    0.002994  -0.000066  -0.000033  -0.000014   0.000957  -0.000105
    12  H   -0.000906  -0.000025   0.000025   0.000143   0.000038   0.000210
    13  H   -0.037780  -0.005335   0.008050  -0.008071   0.034953  -0.000178
    14  H    0.055853   0.041758  -0.077028   0.028033  -0.062640   0.005385
    15  H    0.010821  -0.014135   0.000453  -0.027642   0.022080  -0.002001
    16  H   -0.008407  -0.006255   0.004780  -0.010699   0.011774  -0.002875
    17  H   -0.003212  -0.001629   0.004331  -0.003370   0.002592   0.001570
               7          8          9         10         11         12
     1  C   -0.053142   0.002498  -0.108414   0.000575   0.002994  -0.000906
     2  C    0.006950  -0.000327  -0.007047  -0.000021  -0.000066  -0.000025
     3  C   -0.004532   0.000020   0.006531  -0.000122  -0.000033   0.000025
     4  C   -0.009069  -0.000314   0.022052  -0.000183  -0.000014   0.000143
     5  C    0.017848  -0.001608   0.030353  -0.000506   0.000957   0.000038
     6  C    0.000806   0.000257  -0.009348   0.000039  -0.000105   0.000210
     7  C    0.058459  -0.000002  -0.018807   0.000578  -0.000391  -0.001484
     8  H   -0.000002   0.000199  -0.000484  -0.000000  -0.000002  -0.000000
     9  C   -0.018807  -0.000484   0.078579  -0.000335  -0.003331   0.001987
    10  H    0.000578  -0.000000  -0.000335  -0.000081   0.000000  -0.000014
    11  H   -0.000391  -0.000002  -0.003331   0.000000   0.000006  -0.000011
    12  H   -0.001484  -0.000000   0.001987  -0.000014  -0.000011   0.000269
    13  H    0.005026   0.000010   0.001593  -0.000000  -0.000001   0.000000
    14  H   -0.004038   0.000008  -0.002894   0.000003   0.000000  -0.000000
    15  H    0.000189  -0.000000   0.000592  -0.000006  -0.000000  -0.000000
    16  H    0.000494   0.000000   0.000147  -0.000000  -0.000000   0.000000
    17  H   -0.000068  -0.000000   0.000170  -0.000026  -0.000000   0.000001
              13         14         15         16         17
     1  C   -0.037780   0.055853   0.010821  -0.008407  -0.003212
     2  C   -0.005335   0.041758  -0.014135  -0.006255  -0.001629
     3  C    0.008050  -0.077028   0.000453   0.004780   0.004331
     4  C   -0.008071   0.028033  -0.027642  -0.010699  -0.003370
     5  C    0.034953  -0.062640   0.022080   0.011774   0.002592
     6  C   -0.000178   0.005385  -0.002001  -0.002875   0.001570
     7  C    0.005026  -0.004038   0.000189   0.000494  -0.000068
     8  H    0.000010   0.000008  -0.000000   0.000000  -0.000000
     9  C    0.001593  -0.002894   0.000592   0.000147   0.000170
    10  H   -0.000000   0.000003  -0.000006  -0.000000  -0.000026
    11  H   -0.000001   0.000000  -0.000000  -0.000000  -0.000000
    12  H    0.000000  -0.000000  -0.000000   0.000000   0.000001
    13  H    0.018098  -0.008906   0.000118   0.001134   0.000086
    14  H   -0.008906   0.079249  -0.001215  -0.001723  -0.001537
    15  H    0.000118  -0.001215  -0.037764   0.002321   0.001764
    16  H    0.001134  -0.001723   0.002321  -0.031840   0.000091
    17  H    0.000086  -0.001537   0.001764   0.000091  -0.000556
 Mulliken charges and spin densities:
               1          2
     1  C    0.353181   0.104792
     2  C   -0.623246  -0.094549
     3  C   -0.358876   1.085992
     4  C   -0.174785  -0.027150
     5  C   -0.274723  -0.031168
     6  C   -0.199047  -0.002299
     7  C   -0.228475  -0.001184
     8  H    0.173143   0.000255
     9  C   -0.147656  -0.008657
    10  H    0.178166  -0.000097
    11  H    0.177526   0.000003
    12  H    0.175678   0.000234
    13  H    0.201363   0.008797
    14  H    0.232895   0.050307
    15  H    0.172701  -0.044426
    16  H    0.181686  -0.041059
    17  H    0.160468   0.000209
 Sum of Mulliken charges =  -0.00000   1.00000
 Mulliken charges and spin densities with hydrogens summed into heavy atoms:
               1          2
     1  C    0.353181   0.104792
     2  C   -0.188988  -0.035444
     3  C   -0.004489   1.000507
     4  C   -0.014317  -0.026940
     5  C   -0.101580  -0.030913
     6  C   -0.020881  -0.002397
     7  C   -0.050949  -0.001181
     9  C    0.028023  -0.008424
 Electronic spatial extent (au):  <R**2>=            980.1073
 Charge=             -0.0000 electrons
 Dipole moment (field-independent basis, Debye):
    X=              0.3261    Y=             -0.0530    Z=              0.5934  Tot=              0.6792
 Quadrupole moment (field-independent basis, Debye-Ang):
   XX=            -44.7893   YY=            -44.9492   ZZ=            -54.1461
   XY=             -0.0207   XZ=              2.7282   YZ=             -0.4362
 Traceless Quadrupole moment (field-independent basis, Debye-Ang):
   XX=              3.1722   YY=              3.0123   ZZ=             -6.1845
   XY=             -0.0207   XZ=              2.7282   YZ=             -0.4362
 Octapole moment (field-independent basis, Debye-Ang**2):
  XXX=             -4.7985  YYY=              1.5176  ZZZ=              3.6803  XYY=             -2.3985
  XXY=              0.3090  XXZ=              1.7255  XZZ=              0.7174  YZZ=             -0.2736
  YYZ=             -0.1429  XYZ=              0.6172
 Hexadecapole moment (field-independent basis, Debye-Ang**3):
 XXXX=           -899.4797 YYYY=           -322.6792 ZZZZ=           -114.4611 XXXY=              4.8015
 XXXZ=             18.0140 YYYX=              4.3038 YYYZ=             -2.4059 ZZZX=              9.7918
 ZZZY=             -0.1667 XXYY=           -206.5504 XXZZ=           -195.5236 YYZZ=            -82.3951
 XXYZ=             -1.6822 YYXZ=              3.1613 ZZXY=             -1.3850
 N-N= 3.318245461300D+02 E-N=-1.380717372752D+03  KE= 3.072089800660D+02
                          Isotropic Fermi Contact Couplings
        Atom                 a.u.       MegaHertz       Gauss      10(-4) cm-1
     1  C(13)              0.00992      11.15473       3.98029       3.72082
     2  C(13)             -0.01575     -17.70477      -6.31750      -5.90568
     3  C(13)              0.19513     219.36707      78.27563      73.17298
     4  C(13)             -0.00117      -1.31373      -0.46877      -0.43821
     5  C(13)             -0.00029      -0.32829      -0.11714      -0.10951
     6  C(13)              0.00060       0.67433       0.24062       0.22493
     7  C(13)              0.00064       0.71778       0.25612       0.23942
     8  H(1)               0.00007       0.30960       0.11047       0.10327
     9  C(13)             -0.00034      -0.37819      -0.13495      -0.12615
    10  H(1)              -0.00003      -0.15130      -0.05399      -0.05047
    11  H(1)               0.00001       0.06309       0.02251       0.02104
    12  H(1)               0.00008       0.35963       0.12832       0.11996
    13  H(1)               0.00472      21.09003       7.52545       7.03488
    14  H(1)               0.02643     118.13585      42.15381      39.40588
    15  H(1)              -0.00935     -41.78181     -14.90879     -13.93691
    16  H(1)              -0.00839     -37.50368     -13.38225     -12.50988
    17  H(1)               0.00003       0.14432       0.05150       0.04814
 --------------------------------------------------------
       Center         ----  Spin Dipole Couplings  ----
                      3XX-RR        3YY-RR        3ZZ-RR
 --------------------------------------------------------
     1   Atom        0.019112     -0.014217     -0.004895
     2   Atom       -0.019598     -0.014049      0.033646
     3   Atom       -0.403021     -0.226421      0.629442
     4   Atom        0.008016     -0.001989     -0.006027
     5   Atom        0.005664      0.000115     -0.005779
     6   Atom        0.002914     -0.002363     -0.000550
     7   Atom        0.002352     -0.002090     -0.000263
     8   Atom        0.001281      0.000699     -0.001981
     9   Atom        0.003731      0.000296     -0.004027
    10   Atom        0.001508     -0.000428     -0.001080
    11   Atom        0.001334     -0.000539     -0.000794
    12   Atom        0.001194     -0.000527     -0.000667
    13   Atom       -0.009541      0.009840     -0.000299
    14   Atom       -0.009229     -0.006399      0.015627
    15   Atom       -0.033382      0.052322     -0.018939
    16   Atom        0.071551     -0.050652     -0.020899
    17   Atom        0.004193     -0.000767     -0.003427
 --------------------------------------------------------
                        XY            XZ            YZ
 --------------------------------------------------------
     1   Atom       -0.003795     -0.011328      0.002126
     2   Atom       -0.008312     -0.001481     -0.001000
     3   Atom       -0.169408      0.340489     -0.559482
     4   Atom        0.002921     -0.002825     -0.002291
     5   Atom       -0.004010     -0.000913      0.000330
     6   Atom        0.001638     -0.000951     -0.000154
     7   Atom       -0.000962     -0.000963      0.000259
     8   Atom       -0.003618     -0.000941      0.000907
     9   Atom        0.000064      0.000187     -0.000393
    10   Atom        0.001542     -0.000547     -0.000285
    11   Atom       -0.000946     -0.000186      0.000047
    12   Atom        0.000058     -0.000190     -0.000039
    13   Atom       -0.002755     -0.001543      0.012318
    14   Atom       -0.006123     -0.005285      0.002287
    15   Atom        0.047459      0.021515     -0.006856
    16   Atom        0.010073      0.004546     -0.022638
    17   Atom        0.008534     -0.005596     -0.004631
 --------------------------------------------------------


 ---------------------------------------------------------------------------------
              Anisotropic Spin Dipole Couplings in Principal Axis System
 ---------------------------------------------------------------------------------

       Atom             a.u.   MegaHertz   Gauss  10(-4) cm-1        Axes

              Baa    -0.0148    -1.981    -0.707    -0.661  0.0641  0.9882 -0.1393
     1 C(13)  Bbb    -0.0093    -1.253    -0.447    -0.418  0.3800  0.1049  0.9190
              Bcc     0.0241     3.234     1.154     1.079  0.9228 -0.1119 -0.3687
 
              Baa    -0.0256    -3.441    -1.228    -1.148  0.8111  0.5842  0.0301
     2 C(13)  Bbb    -0.0081    -1.082    -0.386    -0.361 -0.5844  0.8114 -0.0013
              Bcc     0.0337     4.522     1.614     1.508 -0.0252 -0.0165  0.9995
 
              Baa    -0.5058   -67.879   -24.221   -22.642  0.9141  0.3979 -0.0781
     3 C(13)  Bbb    -0.5025   -67.434   -24.062   -22.493 -0.3110  0.8115  0.4947
              Bcc     1.0084   135.312    48.283    45.135  0.2602 -0.4279  0.8656
 
              Baa    -0.0072    -0.967    -0.345    -0.323  0.1057  0.3496  0.9309
     4 C(13)  Bbb    -0.0023    -0.311    -0.111    -0.104 -0.3342  0.8942 -0.2979
              Bcc     0.0095     1.278     0.456     0.426  0.9365  0.2797 -0.2113
 
              Baa    -0.0059    -0.785    -0.280    -0.262  0.0781 -0.0026  0.9969
     5 C(13)  Bbb    -0.0020    -0.266    -0.095    -0.089  0.4610  0.8868 -0.0338
              Bcc     0.0078     1.051     0.375     0.351  0.8839 -0.4622 -0.0705
 
              Baa    -0.0028    -0.381    -0.136    -0.127 -0.2816  0.9581 -0.0527
     6 C(13)  Bbb    -0.0008    -0.103    -0.037    -0.034  0.2015  0.1127  0.9730
              Bcc     0.0036     0.483     0.172     0.161  0.9381  0.2634 -0.2248
 
              Baa    -0.0023    -0.307    -0.110    -0.103  0.1963  0.9800 -0.0320
     7 C(13)  Bbb    -0.0006    -0.077    -0.028    -0.026  0.3033 -0.0296  0.9524
              Bcc     0.0029     0.385     0.137     0.128  0.9325 -0.1967 -0.3030
 
              Baa    -0.0026    -1.409    -0.503    -0.470  0.6677  0.7414 -0.0672
     8 H(1)   Bbb    -0.0022    -1.189    -0.424    -0.397  0.1837 -0.0766  0.9800
              Bcc     0.0049     2.598     0.927     0.867  0.7214 -0.6667 -0.1874
 
              Baa    -0.0041    -0.546    -0.195    -0.182 -0.0246  0.0899  0.9956
     9 C(13)  Bbb     0.0003     0.044     0.016     0.015 -0.0137  0.9958 -0.0903
              Bcc     0.0037     0.501     0.179     0.167  0.9996  0.0159  0.0232
 
              Baa    -0.0013    -0.685    -0.244    -0.228 -0.5011  0.8509 -0.1576
    10 H(1)   Bbb    -0.0012    -0.632    -0.226    -0.211  0.0707  0.2217  0.9725
              Bcc     0.0025     1.317     0.470     0.439  0.8625  0.4762 -0.1713
 
              Baa    -0.0009    -0.502    -0.179    -0.167  0.3903  0.8972  0.2065
    11 H(1)   Bbb    -0.0008    -0.428    -0.153    -0.143 -0.0122 -0.2192  0.9756
              Bcc     0.0017     0.930     0.332     0.310  0.9206 -0.3833 -0.0746
 
              Baa    -0.0007    -0.369    -0.132    -0.123  0.0920  0.1962  0.9762
    12 H(1)   Bbb    -0.0005    -0.279    -0.100    -0.093 -0.0545  0.9799 -0.1918
              Bcc     0.0012     0.649     0.231     0.216  0.9943  0.0355 -0.1009
 
              Baa    -0.0099    -5.303    -1.892    -1.769  0.9781  0.1896 -0.0857
    13 H(1)   Bbb    -0.0085    -4.538    -1.619    -1.514  0.1754 -0.5305  0.8293
              Bcc     0.0184     9.841     3.512     3.283 -0.1118  0.8262  0.5522
 
              Baa    -0.0144    -7.663    -2.734    -2.556  0.8022  0.5892  0.0964
    14 H(1)   Bbb    -0.0029    -1.534    -0.547    -0.512 -0.5521  0.7936 -0.2558
              Bcc     0.0172     9.197     3.282     3.068 -0.2272  0.1520  0.9619
 
              Baa    -0.0653   -34.863   -12.440   -11.629  0.8256 -0.3584 -0.4358
    15 H(1)   Bbb    -0.0081    -4.343    -1.550    -1.449  0.3872 -0.2019  0.8996
              Bcc     0.0735    39.206    13.990    13.078  0.4104  0.9115  0.0279
 
              Baa    -0.0638   -34.020   -12.139   -11.348 -0.0812  0.8778  0.4722
    16 H(1)   Bbb    -0.0087    -4.639    -1.655    -1.547  0.0095 -0.4730  0.8810
              Bcc     0.0725    38.659    13.795    12.895  0.9967  0.0760  0.0301
 
              Baa    -0.0073    -3.895    -1.390    -1.299 -0.4472  0.8265  0.3419
    17 H(1)   Bbb    -0.0064    -3.403    -1.214    -1.135  0.5136 -0.0757  0.8547
              Bcc     0.0137     7.299     2.604     2.435  0.7323  0.5578 -0.3906
 

 ---------------------------------------------------------------------------------

 1\1\GINC-NODE31\SP\UB3LYP\6-31+G(d)\C8H9(2)\YANZ\12-Oct-2023\0\\# ub3l
 yp/6-31+g(d)\\tmpdir/M3_ref_14.gjf\\0,2\C,0,0.33039499,0.70663737,-0.0
 1689504\C,0,-1.07240839,1.28243937,0.02074375\C,0,-1.80408589,0.683985
 41,1.22253756\C,0,0.35803021,-0.69509548,-0.06228099\C,0,1.51456879,1.
 42595753,0.00431597\C,0,1.5691386,-1.37271489,-0.06897614\C,0,2.733973
 09,0.74492017,-0.01998226\H,0,1.49361496,2.51222136,0.0410451\C,0,2.76
 086323,-0.64577722,-0.05543502\H,0,1.58781592,-2.45944017,-0.09245997\
 H,0,3.66448683,1.30480451,-0.00921086\H,0,3.71236256,-1.16918432,-0.07
 323601\H,0,-1.08734547,2.3742003,0.00010213\H,0,-1.65168046,0.82749647
 ,-0.80422442\H,0,-1.62765964,-0.37782127,1.28047255\H,0,-2.80967507,1.
 06898249,1.39913883\H,0,-0.64898759,-1.14630964,-0.03800929\\Version=E
 S64L-G16RevA.03\State=2-A\HF=-310.2019416\S2=0.753205\S2-1=0.\S2A=0.75
 0007\RMSD=6.090e-09\Dipole=-0.1660634,0.0132571,-0.2089166\Quadrupole=
 2.8337032,2.2363871,-5.0700904,-0.0515755,0.790536,-0.2888184\PG=C01 [
 X(C8H9)]\\@


 AND THIS OUR LIFE, EXEMPT FROM PUBLIC HAUNT,
 FINDS TONGUES IN TREES, BOOKS IN THE RUNNING BROOKS,
 SERMONS IN STONES, AND GOOD IN EVERYTHING.
 I WOULD NOT CHANGE IT. -- W. SHAKESPEARE
 AS YOU LIKE IT, ACT II, SCENE 1.
 Job cpu time:       0 days  0 hours  5 minutes 19.6 seconds.
 Elapsed time:       0 days  0 hours  1 minutes 27.2 seconds.
 File lengths (MBytes):  RWF=     23 Int=      0 D2E=      0 Chk=      3 Scr=      1
 Normal termination of Gaussian 16 at Thu Oct 12 15:25:24 2023.
