 Entering Gaussian System, Link 0=g16
 Initial command:
 /share/apps/gaussian/g16/l1.exe "/tmp/55567.mgr/Gau-455660.inp" -scrdir="/tmp/55567.mgr/"
 Entering Link 1 = /share/apps/gaussian/g16/l1.exe PID=    455661.
  
 Copyright (c) 1988,1990,1992,1993,1995,1998,2003,2009,2016,
            Gaussian, Inc.  All Rights Reserved.
  
 This is part of the Gaussian(R) 16 program.  It is based on
 the Gaussian(R) 09 system (copyright 2009, Gaussian, Inc.),
 the Gaussian(R) 03 system (copyright 2003, Gaussian, Inc.),
 the Gaussian(R) 98 system (copyright 1998, Gaussian, Inc.),
 the Gaussian(R) 94 system (copyright 1995, Gaussian, Inc.),
 the Gaussian 92(TM) system (copyright 1992, Gaussian, Inc.),
 the Gaussian 90(TM) system (copyright 1990, Gaussian, Inc.),
 the Gaussian 88(TM) system (copyright 1988, Gaussian, Inc.),
 the Gaussian 86(TM) system (copyright 1986, Carnegie Mellon
 University), and the Gaussian 82(TM) system (copyright 1983,
 Carnegie Mellon University). Gaussian is a federally registered
 trademark of Gaussian, Inc.
  
 This software contains proprietary and confidential information,
 including trade secrets, belonging to Gaussian, Inc.
  
 This software is provided under written license and may be
 used, copied, transmitted, or stored only in accord with that
 written license.
  
 The following legend is applicable only to US Government
 contracts under FAR:
  
                    RESTRICTED RIGHTS LEGEND
  
 Use, reproduction and disclosure by the US Government is
 subject to restrictions as set forth in subparagraphs (a)
 and (c) of the Commercial Computer Software - Restricted
 Rights clause in FAR 52.227-19.
  
 Gaussian, Inc.
 340 Quinnipiac St., Bldg. 40, Wallingford CT 06492
  
  
 ---------------------------------------------------------------
 Warning -- This program may not be used in any manner that
 competes with the business of Gaussian, Inc. or will provide
 assistance to any competitor of Gaussian, Inc.  The licensee
 of this program is prohibited from giving any competitor of
 Gaussian, Inc. access to this program.  By using this program,
 the user acknowledges that Gaussian, Inc. is engaged in the
 business of creating and licensing software in the field of
 computational chemistry and represents and warrants to the
 licensee that it is not a competitor of Gaussian, Inc. and that
 it will not use this program in any manner prohibited above.
 ---------------------------------------------------------------
  

 Cite this work as:
 Gaussian 16, Revision A.03,
 M. J. Frisch, G. W. Trucks, H. B. Schlegel, G. E. Scuseria, 
 M. A. Robb, J. R. Cheeseman, G. Scalmani, V. Barone, 
 G. A. Petersson, H. Nakatsuji, X. Li, M. Caricato, A. V. Marenich, 
 J. Bloino, B. G. Janesko, R. Gomperts, B. Mennucci, H. P. Hratchian, 
 J. V. Ortiz, A. F. Izmaylov, J. L. Sonnenberg, D. Williams-Young, 
 F. Ding, F. Lipparini, F. Egidi, J. Goings, B. Peng, A. Petrone, 
 T. Henderson, D. Ranasinghe, V. G. Zakrzewski, J. Gao, N. Rega, 
 G. Zheng, W. Liang, M. Hada, M. Ehara, K. Toyota, R. Fukuda, 
 J. Hasegawa, M. Ishida, T. Nakajima, Y. Honda, O. Kitao, H. Nakai, 
 T. Vreven, K. Throssell, J. A. Montgomery, Jr., J. E. Peralta, 
 F. Ogliaro, M. J. Bearpark, J. J. Heyd, E. N. Brothers, K. N. Kudin, 
 V. N. Staroverov, T. A. Keith, R. Kobayashi, J. Normand, 
 K. Raghavachari, A. P. Rendell, J. C. Burant, S. S. Iyengar, 
 J. Tomasi, M. Cossi, J. M. Millam, M. Klene, C. Adamo, R. Cammi, 
 J. W. Ochterski, R. L. Martin, K. Morokuma, O. Farkas, 
 J. B. Foresman, and D. J. Fox, Gaussian, Inc., Wallingford CT, 2016.
 
 ******************************************
 Gaussian 16:  ES64L-G16RevA.03 25-Dec-2016
                22-Sep-2023 
 ******************************************
 %nprocshared=4
 Will use up to    4 processors via shared memory.
 %mem=4GB
 ----------------
 # 6-31g(d) wb97x
 ----------------
 1/38=1,172=1/1;
 2/12=2,17=6,18=5,40=1/2;
 3/5=1,6=6,7=1,11=2,25=1,30=1,74=-57/1,2,3;
 4//1;
 5/5=2,38=5/2;
 6/7=2,8=2,9=2,10=2,28=1/1;
 99/5=1,9=1/99;
 -----------------------
 tmpdir/M1_conf_0_13.gjf
 -----------------------
 Symbolic Z-matrix:
 Charge =  0 Multiplicity = 1
 C                     8.597     34.315    35.138 
 H                     7.76442   34.82803   34.64708 
 H                     9.44238   35.01259   35.1622 
 H                     8.29876   34.12319   36.17474 
 H                     8.84095   33.39349   34.62332 
 
                          Input orientation:                          
 ---------------------------------------------------------------------
 Center     Atomic      Atomic             Coordinates (Angstroms)
 Number     Number       Type             X           Y           Z
 ---------------------------------------------------------------------
      1          6           0        8.597000   34.315000   35.138000
      2          1           0        7.764417   34.828034   34.647078
      3          1           0        9.442383   35.012590   35.162201
      4          1           0        8.298761   34.123194   36.174736
      5          1           0        8.840950   33.393493   34.623317
 ---------------------------------------------------------------------
                    Distance matrix (angstroms):
                    1          2          3          4          5
     1  C    0.000000
     2  H    1.094259   0.000000
     3  H    1.096307   1.764931   0.000000
     4  H    1.095700   1.765237   1.767519   0.000000
     5  H    1.083321   1.793710   1.809307   1.798147   0.000000
 Stoichiometry    CH4
 Framework group  C1[X(CH4)]
 Deg. of freedom     9
 Full point group                 C1      NOp   1
 Largest Abelian subgroup         C1      NOp   1
 Largest concise Abelian subgroup C1      NOp   1
                         Standard orientation:                         
 ---------------------------------------------------------------------
 Center     Atomic      Atomic             Coordinates (Angstroms)
 Number     Number       Type             X           Y           Z
 ---------------------------------------------------------------------
      1          6           0        0.011438   -0.001745   -0.002943
      2          1           0       -0.263861   -0.256143    1.025111
      3          1           0       -0.558737   -0.661855   -0.667056
      4          1           0       -0.326460    1.023830   -0.188896
      5          1           0        1.080433   -0.095360   -0.151501
 ---------------------------------------------------------------------
 Rotational constants (GHZ):         160.9525424         156.1422729         155.8279441
 Standard basis: 6-31G(d) (6D, 7F)
 There are    23 symmetry adapted cartesian basis functions of A   symmetry.
 There are    23 symmetry adapted basis functions of A   symmetry.
    23 basis functions,    44 primitive gaussians,    23 cartesian basis functions
     5 alpha electrons        5 beta electrons
       nuclear repulsion energy        13.4070972566 Hartrees.
 NAtoms=    5 NActive=    5 NUniq=    5 SFac= 1.00D+00 NAtFMM=   60 NAOKFM=F Big=F
 Integral buffers will be    131072 words long.
 Raffenetti 2 integral format.
 Two-electron integral symmetry is turned on.
 One-electron integrals computed using PRISM.
 NBasis=    23 RedAO= T EigKep=  1.79D-02  NBF=    23
 NBsUse=    23 1.00D-06 EigRej= -1.00D+00 NBFU=    23
 ExpMin= 1.61D-01 ExpMax= 3.05D+03 ExpMxC= 4.57D+02 IAcc=3 IRadAn=         5 AccDes= 0.00D+00
 Harris functional with IExCor= 4538 and IRadAn=       5 diagonalized for initial guess.
 HarFok:  IExCor= 4538 AccDes= 0.00D+00 IRadAn=         5 IDoV= 1 UseB2=F ITyADJ=14
 ICtDFT=  3500011 ScaDFX=  1.000000  1.000000  1.000000  1.000000
 FoFCou: FMM=F IPFlag=           0 FMFlag=      100000 FMFlg1=           0
         NFxFlg=           0 DoJE=T BraDBF=F KetDBF=T FulRan=T
         wScrn=  0.000000 ICntrl=       500 IOpCl=  0 I1Cent=   200000004 NGrid=           0
         NMat0=    1 NMatS0=      1 NMatT0=    0 NMatD0=    1 NMtDS0=    0 NMtDT0=    0
 Petite list used in FoFCou.
 Keep R1 ints in memory in canonical form, NReq=3524626.
 Requested convergence on RMS density matrix=1.00D-08 within 128 cycles.
 Requested convergence on MAX density matrix=1.00D-06.
 Requested convergence on             energy=1.00D-06.
 No special actions if energy rises.
 Integral accuracy reduced to 1.0D-05 until final iterations.
 Initial convergence to 1.0D-05 achieved.  Increase integral accuracy.
 SCF Done:  E(RwB97X) =  -40.4990895524     A.U. after   10 cycles
            NFock= 10  Conv=0.89D-08     -V/T= 2.0109

 **********************************************************************

            Population analysis using the SCF density.

 **********************************************************************

 Orbital symmetries:
       Occupied  (A) (A) (A) (A) (A)
       Virtual   (A) (A) (A) (A) (A) (A) (A) (A) (A) (A) (A) (A)
                 (A) (A) (A) (A) (A) (A)
 The electronic state is 1-A.
 Alpha  occ. eigenvalues --  -10.24849  -0.81804  -0.50327  -0.49110  -0.49077
 Alpha virt. eigenvalues --    0.21672   0.27340   0.27401   0.27996   0.63905
 Alpha virt. eigenvalues --    0.63967   0.64222   1.01329   1.01432   1.02979
 Alpha virt. eigenvalues --    1.07251   1.20952   1.75738   1.75838   2.35174
 Alpha virt. eigenvalues --    2.35839   2.36075   4.30820
          Condensed to atoms (all electrons):
               1          2          3          4          5
     1  C    5.124250   0.385232   0.385295   0.385181   0.388249
     2  H    0.385232   0.524414  -0.026177  -0.025962  -0.022986
     3  H    0.385295  -0.026177   0.522853  -0.026020  -0.021534
     4  H    0.385181  -0.025962  -0.026020   0.524139  -0.022629
     5  H    0.388249  -0.022986  -0.021534  -0.022629   0.507047
 Mulliken charges:
               1
     1  C   -0.668208
     2  H    0.165479
     3  H    0.165583
     4  H    0.165292
     5  H    0.171853
 Sum of Mulliken charges =  -0.00000
 Mulliken charges with hydrogens summed into heavy atoms:
               1
     1  C   -0.000000
 Electronic spatial extent (au):  <R**2>=             35.4409
 Charge=             -0.0000 electrons
 Dipole moment (field-independent basis, Debye):
    X=             -0.0301    Y=              0.0054    Z=              0.0112  Tot=              0.0326
 Quadrupole moment (field-independent basis, Debye-Ang):
   XX=             -8.1118   YY=             -8.3147   ZZ=             -8.3218
   XY=             -0.0048   XZ=             -0.0088   YZ=              0.0011
 Traceless Quadrupole moment (field-independent basis, Debye-Ang):
   XX=              0.1376   YY=             -0.0652   ZZ=             -0.0724
   XY=             -0.0048   XZ=             -0.0088   YZ=              0.0011
 Octapole moment (field-independent basis, Debye-Ang**2):
  XXX=              0.8027  YYY=              0.5486  ZZZ=              0.5636  XYY=             -0.4471
  XXY=             -0.1712  XXZ=             -0.2490  XZZ=             -0.3858  YZZ=             -0.3682
  YYZ=             -0.2901  XYZ=             -0.0710
 Hexadecapole moment (field-independent basis, Debye-Ang**3):
 XXXX=            -14.7813 YYYY=            -14.9770 ZZZZ=            -14.9370 XXXY=             -0.0478
 XXXZ=             -0.1126 YYYX=             -0.2214 YYYZ=             -0.0282 ZZZX=             -0.1568
 ZZZY=             -0.0960 XXYY=             -5.1794 XXZZ=             -5.1992 YYZZ=             -5.1351
 XXYZ=              0.1316 YYXZ=              0.2292 ZZXY=              0.2466
 N-N= 1.340709725664D+01 E-N=-1.198255100652D+02  KE= 4.006153299346D+01
 1\1\GINC-NODE68\SP\RwB97X\6-31G(d)\C1H4\YANZ\22-Sep-2023\0\\# 6-31g(d)
  wb97x\\tmpdir/M1_conf_0_13.gjf\\0,1\C,0,8.597,34.315,35.138\H,0,7.764
 417,34.828034,34.647078\H,0,9.442383,35.01259,35.162201\H,0,8.298761,3
 4.123194,36.174736\H,0,8.84094958,33.39349312,34.62331705\\Version=ES6
 4L-G16RevA.03\State=1-A\HF=-40.4990896\RMSD=8.946e-09\Dipole=-0.005669
 5,0.0101318,0.0054198\Quadrupole=-0.0505766,0.0670344,-0.0164578,-0.01
 41804,-0.0104957,0.0627944\PG=C01 [X(C1H4)]\\@


 WE DON'T KNOW ONE MILLIONTH OF ONE PERCENT ABOUT
 ANYTHING.
                                     T. A. EDISON.
 Job cpu time:       0 days  0 hours  0 minutes  6.1 seconds.
 Elapsed time:       0 days  0 hours  0 minutes  1.7 seconds.
 File lengths (MBytes):  RWF=      6 Int=      0 D2E=      0 Chk=      1 Scr=      1
 Normal termination of Gaussian 16 at Fri Sep 22 16:29:29 2023.
