 Entering Gaussian System, Link 0=g16
 Initial command:
 /share/apps/gaussian/g16/l1.exe "/tmp/55567.mgr/Gau-456753.inp" -scrdir="/tmp/55567.mgr/"
 Entering Link 1 = /share/apps/gaussian/g16/l1.exe PID=    456754.
  
 Copyright (c) 1988,1990,1992,1993,1995,1998,2003,2009,2016,
            Gaussian, Inc.  All Rights Reserved.
  
 This is part of the Gaussian(R) 16 program.  It is based on
 the Gaussian(R) 09 system (copyright 2009, Gaussian, Inc.),
 the Gaussian(R) 03 system (copyright 2003, Gaussian, Inc.),
 the Gaussian(R) 98 system (copyright 1998, Gaussian, Inc.),
 the Gaussian(R) 94 system (copyright 1995, Gaussian, Inc.),
 the Gaussian 92(TM) system (copyright 1992, Gaussian, Inc.),
 the Gaussian 90(TM) system (copyright 1990, Gaussian, Inc.),
 the Gaussian 88(TM) system (copyright 1988, Gaussian, Inc.),
 the Gaussian 86(TM) system (copyright 1986, Carnegie Mellon
 University), and the Gaussian 82(TM) system (copyright 1983,
 Carnegie Mellon University). Gaussian is a federally registered
 trademark of Gaussian, Inc.
  
 This software contains proprietary and confidential information,
 including trade secrets, belonging to Gaussian, Inc.
  
 This software is provided under written license and may be
 used, copied, transmitted, or stored only in accord with that
 written license.
  
 The following legend is applicable only to US Government
 contracts under FAR:
  
                    RESTRICTED RIGHTS LEGEND
  
 Use, reproduction and disclosure by the US Government is
 subject to restrictions as set forth in subparagraphs (a)
 and (c) of the Commercial Computer Software - Restricted
 Rights clause in FAR 52.227-19.
  
 Gaussian, Inc.
 340 Quinnipiac St., Bldg. 40, Wallingford CT 06492
  
  
 ---------------------------------------------------------------
 Warning -- This program may not be used in any manner that
 competes with the business of Gaussian, Inc. or will provide
 assistance to any competitor of Gaussian, Inc.  The licensee
 of this program is prohibited from giving any competitor of
 Gaussian, Inc. access to this program.  By using this program,
 the user acknowledges that Gaussian, Inc. is engaged in the
 business of creating and licensing software in the field of
 computational chemistry and represents and warrants to the
 licensee that it is not a competitor of Gaussian, Inc. and that
 it will not use this program in any manner prohibited above.
 ---------------------------------------------------------------
  

 Cite this work as:
 Gaussian 16, Revision A.03,
 M. J. Frisch, G. W. Trucks, H. B. Schlegel, G. E. Scuseria, 
 M. A. Robb, J. R. Cheeseman, G. Scalmani, V. Barone, 
 G. A. Petersson, H. Nakatsuji, X. Li, M. Caricato, A. V. Marenich, 
 J. Bloino, B. G. Janesko, R. Gomperts, B. Mennucci, H. P. Hratchian, 
 J. V. Ortiz, A. F. Izmaylov, J. L. Sonnenberg, D. Williams-Young, 
 F. Ding, F. Lipparini, F. Egidi, J. Goings, B. Peng, A. Petrone, 
 T. Henderson, D. Ranasinghe, V. G. Zakrzewski, J. Gao, N. Rega, 
 G. Zheng, W. Liang, M. Hada, M. Ehara, K. Toyota, R. Fukuda, 
 J. Hasegawa, M. Ishida, T. Nakajima, Y. Honda, O. Kitao, H. Nakai, 
 T. Vreven, K. Throssell, J. A. Montgomery, Jr., J. E. Peralta, 
 F. Ogliaro, M. J. Bearpark, J. J. Heyd, E. N. Brothers, K. N. Kudin, 
 V. N. Staroverov, T. A. Keith, R. Kobayashi, J. Normand, 
 K. Raghavachari, A. P. Rendell, J. C. Burant, S. S. Iyengar, 
 J. Tomasi, M. Cossi, J. M. Millam, M. Klene, C. Adamo, R. Cammi, 
 J. W. Ochterski, R. L. Martin, K. Morokuma, O. Farkas, 
 J. B. Foresman, and D. J. Fox, Gaussian, Inc., Wallingford CT, 2016.
 
 ******************************************
 Gaussian 16:  ES64L-G16RevA.03 25-Dec-2016
                22-Sep-2023 
 ******************************************
 %nprocshared=4
 Will use up to    4 processors via shared memory.
 %mem=4GB
 ----------------
 # 6-31g(d) wb97x
 ----------------
 1/38=1,172=1/1;
 2/12=2,17=6,18=5,40=1/2;
 3/5=1,6=6,7=1,11=2,25=1,30=1,74=-57/1,2,3;
 4//1;
 5/5=2,38=5/2;
 6/7=2,8=2,9=2,10=2,28=1/1;
 99/5=1,9=1/99;
 -----------------------
 tmpdir/M1_conf_2_14.gjf
 -----------------------
 Symbolic Z-matrix:
 Charge =  0 Multiplicity = 1
 C                     11.29759   32.83352   35.26358 
 H                     11.1606   33.60447   36.0308 
 H                     11.58499   33.34497   34.33782 
 H                     10.33037   32.32476   35.09802 
 H                     12.0897   32.12953   35.59007 
 
                          Input orientation:                          
 ---------------------------------------------------------------------
 Center     Atomic      Atomic             Coordinates (Angstroms)
 Number     Number       Type             X           Y           Z
 ---------------------------------------------------------------------
      1          6           0       11.297593   32.833516   35.263580
      2          1           0       11.160598   33.604470   36.030796
      3          1           0       11.584991   33.344972   34.337820
      4          1           0       10.330373   32.324760   35.098022
      5          1           0       12.089698   32.129530   35.590067
 ---------------------------------------------------------------------
                    Distance matrix (angstroms):
                    1          2          3          4          5
     1  C    0.000000
     2  H    1.096248   0.000000
     3  H    1.096000   1.764544   0.000000
     4  H    1.105331   1.788015   1.786842   0.000000
     5  H    1.108883   1.798031   1.816632   1.837239   0.000000
 Stoichiometry    CH4
 Framework group  C1[X(CH4)]
 Deg. of freedom     9
 Full point group                 C1      NOp   1
 Largest Abelian subgroup         C1      NOp   1
 Largest concise Abelian subgroup C1      NOp   1
                         Standard orientation:                         
 ---------------------------------------------------------------------
 Center     Atomic      Atomic             Coordinates (Angstroms)
 Number     Number       Type             X           Y           Z
 ---------------------------------------------------------------------
      1          6           0       -0.004454    0.005016   -0.003116
      2          1           0        0.064709   -0.508217    0.963097
      3          1           0        0.325266   -0.704014   -0.771085
      4          1           0        0.690799    0.864282    0.003277
      5          1           0       -1.054053    0.317853   -0.176595
 ---------------------------------------------------------------------
 Rotational constants (GHZ):         158.9096706         154.2070931         151.9290016
 Standard basis: 6-31G(d) (6D, 7F)
 There are    23 symmetry adapted cartesian basis functions of A   symmetry.
 There are    23 symmetry adapted basis functions of A   symmetry.
    23 basis functions,    44 primitive gaussians,    23 cartesian basis functions
     5 alpha electrons        5 beta electrons
       nuclear repulsion energy        13.2946947607 Hartrees.
 NAtoms=    5 NActive=    5 NUniq=    5 SFac= 1.00D+00 NAtFMM=   60 NAOKFM=F Big=F
 Integral buffers will be    131072 words long.
 Raffenetti 2 integral format.
 Two-electron integral symmetry is turned on.
 One-electron integrals computed using PRISM.
 NBasis=    23 RedAO= T EigKep=  1.84D-02  NBF=    23
 NBsUse=    23 1.00D-06 EigRej= -1.00D+00 NBFU=    23
 ExpMin= 1.61D-01 ExpMax= 3.05D+03 ExpMxC= 4.57D+02 IAcc=3 IRadAn=         5 AccDes= 0.00D+00
 Harris functional with IExCor= 4538 and IRadAn=       5 diagonalized for initial guess.
 HarFok:  IExCor= 4538 AccDes= 0.00D+00 IRadAn=         5 IDoV= 1 UseB2=F ITyADJ=14
 ICtDFT=  3500011 ScaDFX=  1.000000  1.000000  1.000000  1.000000
 FoFCou: FMM=F IPFlag=           0 FMFlag=      100000 FMFlg1=           0
         NFxFlg=           0 DoJE=T BraDBF=F KetDBF=T FulRan=T
         wScrn=  0.000000 ICntrl=       500 IOpCl=  0 I1Cent=   200000004 NGrid=           0
         NMat0=    1 NMatS0=      1 NMatT0=    0 NMatD0=    1 NMtDS0=    0 NMtDT0=    0
 Petite list used in FoFCou.
 Keep R1 ints in memory in canonical form, NReq=3524626.
 Requested convergence on RMS density matrix=1.00D-08 within 128 cycles.
 Requested convergence on MAX density matrix=1.00D-06.
 Requested convergence on             energy=1.00D-06.
 No special actions if energy rises.
 Integral accuracy reduced to 1.0D-05 until final iterations.
 Initial convergence to 1.0D-05 achieved.  Increase integral accuracy.
 SCF Done:  E(RwB97X) =  -40.4989743869     A.U. after   11 cycles
            NFock= 11  Conv=0.10D-08     -V/T= 2.0121

 **********************************************************************

            Population analysis using the SCF density.

 **********************************************************************

 Orbital symmetries:
       Occupied  (A) (A) (A) (A) (A)
       Virtual   (A) (A) (A) (A) (A) (A) (A) (A) (A) (A) (A) (A)
                 (A) (A) (A) (A) (A) (A)
 The electronic state is 1-A.
 Alpha  occ. eigenvalues --  -10.25252  -0.81530  -0.49750  -0.49234  -0.49032
 Alpha virt. eigenvalues --    0.21417   0.27222   0.27236   0.27411   0.63882
 Alpha virt. eigenvalues --    0.64198   0.64844   1.00878   1.01116   1.01437
 Alpha virt. eigenvalues --    1.06132   1.20596   1.75896   1.76012   2.32710
 Alpha virt. eigenvalues --    2.34788   2.35935   4.30160
          Condensed to atoms (all electrons):
               1          2          3          4          5
     1  C    5.126275   0.384263   0.384672   0.384287   0.384508
     2  H    0.384263   0.525382  -0.026584  -0.024750  -0.024240
     3  H    0.384672  -0.026584   0.522683  -0.025117  -0.022358
     4  H    0.384287  -0.024750  -0.025117   0.521178  -0.021025
     5  H    0.384508  -0.024240  -0.022358  -0.021025   0.517167
 Mulliken charges:
               1
     1  C   -0.664006
     2  H    0.165929
     3  H    0.166704
     4  H    0.165427
     5  H    0.165947
 Sum of Mulliken charges =   0.00000
 Mulliken charges with hydrogens summed into heavy atoms:
               1
     1  C    0.000000
 Electronic spatial extent (au):  <R**2>=             35.7870
 Charge=              0.0000 electrons
 Dipole moment (field-independent basis, Debye):
    X=              0.0222    Y=             -0.0304    Z=              0.0139  Tot=              0.0401
 Quadrupole moment (field-independent basis, Debye-Ang):
   XX=             -8.1590   YY=             -8.2970   ZZ=             -8.3650
   XY=             -0.0042   XZ=             -0.0021   YZ=              0.0031
 Traceless Quadrupole moment (field-independent basis, Debye-Ang):
   XX=              0.1147   YY=             -0.0233   ZZ=             -0.0913
   XY=             -0.0042   XZ=             -0.0021   YZ=              0.0031
 Octapole moment (field-independent basis, Debye-Ang**2):
  XXX=             -0.5816  YYY=              0.0582  ZZZ=              0.3300  XYY=              0.4606
  XXY=              0.5031  XXZ=             -0.1964  XZZ=              0.1815  YZZ=             -0.6534
  YYZ=             -0.0982  XYZ=              0.1536
 Hexadecapole moment (field-independent basis, Debye-Ang**3):
 XXXX=            -15.2524 YYYY=            -15.6391 ZZZZ=            -15.1025 XXXY=             -0.1311
 XXXZ=              0.1987 YYYX=              0.3167 YYYZ=              0.1636 ZZZX=             -0.1007
 ZZZY=             -0.1457 XXYY=             -5.0022 XXZZ=             -5.4519 YYZZ=             -4.9097
 XXYZ=             -0.0022 YYXZ=             -0.1014 ZZXY=             -0.2032
 N-N= 1.329469476069D+01 E-N=-1.195666514252D+02  KE= 4.001377537891D+01
 1\1\GINC-NODE68\SP\RwB97X\6-31G(d)\C1H4\YANZ\22-Sep-2023\0\\# 6-31g(d)
  wb97x\\tmpdir/M1_conf_2_14.gjf\\0,1\C,0,11.29759318,32.83351577,35.26
 357959\H,0,11.16059839,33.60447031,36.03079584\H,0,11.58499088,33.3449
 7207,34.33781989\H,0,10.33037314,32.32476032,35.09802208\H,0,12.089698
 45,32.1295303,35.59006738\\Version=ES64L-G16RevA.03\State=1-A\HF=-40.4
 989744\RMSD=1.040e-09\Dipole=-0.0037145,0.015348,-0.0003928\Quadrupole
 =0.0465648,-0.0084873,-0.0380776,-0.0266097,0.050039,-0.0324066\PG=C01
  [X(C1H4)]\\@


 I DON'T EXACTLY UNDERSTAND WHAT YOU ARE SAYING,
 BUT YOU ARE ABSOLUTELY RIGHT.
     M.S.GORDON, IN A NDSU FACULTY MEETING
 Job cpu time:       0 days  0 hours  0 minutes  6.5 seconds.
 Elapsed time:       0 days  0 hours  0 minutes  1.7 seconds.
 File lengths (MBytes):  RWF=      6 Int=      0 D2E=      0 Chk=      1 Scr=      1
 Normal termination of Gaussian 16 at Fri Sep 22 16:29:41 2023.
