 Entering Gaussian System, Link 0=g16
 Initial command:
 /share/apps/gaussian/g16/l1.exe "/tmp/55567.mgr/Gau-456777.inp" -scrdir="/tmp/55567.mgr/"
 Entering Link 1 = /share/apps/gaussian/g16/l1.exe PID=    456778.
  
 Copyright (c) 1988,1990,1992,1993,1995,1998,2003,2009,2016,
            Gaussian, Inc.  All Rights Reserved.
  
 This is part of the Gaussian(R) 16 program.  It is based on
 the Gaussian(R) 09 system (copyright 2009, Gaussian, Inc.),
 the Gaussian(R) 03 system (copyright 2003, Gaussian, Inc.),
 the Gaussian(R) 98 system (copyright 1998, Gaussian, Inc.),
 the Gaussian(R) 94 system (copyright 1995, Gaussian, Inc.),
 the Gaussian 92(TM) system (copyright 1992, Gaussian, Inc.),
 the Gaussian 90(TM) system (copyright 1990, Gaussian, Inc.),
 the Gaussian 88(TM) system (copyright 1988, Gaussian, Inc.),
 the Gaussian 86(TM) system (copyright 1986, Carnegie Mellon
 University), and the Gaussian 82(TM) system (copyright 1983,
 Carnegie Mellon University). Gaussian is a federally registered
 trademark of Gaussian, Inc.
  
 This software contains proprietary and confidential information,
 including trade secrets, belonging to Gaussian, Inc.
  
 This software is provided under written license and may be
 used, copied, transmitted, or stored only in accord with that
 written license.
  
 The following legend is applicable only to US Government
 contracts under FAR:
  
                    RESTRICTED RIGHTS LEGEND
  
 Use, reproduction and disclosure by the US Government is
 subject to restrictions as set forth in subparagraphs (a)
 and (c) of the Commercial Computer Software - Restricted
 Rights clause in FAR 52.227-19.
  
 Gaussian, Inc.
 340 Quinnipiac St., Bldg. 40, Wallingford CT 06492
  
  
 ---------------------------------------------------------------
 Warning -- This program may not be used in any manner that
 competes with the business of Gaussian, Inc. or will provide
 assistance to any competitor of Gaussian, Inc.  The licensee
 of this program is prohibited from giving any competitor of
 Gaussian, Inc. access to this program.  By using this program,
 the user acknowledges that Gaussian, Inc. is engaged in the
 business of creating and licensing software in the field of
 computational chemistry and represents and warrants to the
 licensee that it is not a competitor of Gaussian, Inc. and that
 it will not use this program in any manner prohibited above.
 ---------------------------------------------------------------
  

 Cite this work as:
 Gaussian 16, Revision A.03,
 M. J. Frisch, G. W. Trucks, H. B. Schlegel, G. E. Scuseria, 
 M. A. Robb, J. R. Cheeseman, G. Scalmani, V. Barone, 
 G. A. Petersson, H. Nakatsuji, X. Li, M. Caricato, A. V. Marenich, 
 J. Bloino, B. G. Janesko, R. Gomperts, B. Mennucci, H. P. Hratchian, 
 J. V. Ortiz, A. F. Izmaylov, J. L. Sonnenberg, D. Williams-Young, 
 F. Ding, F. Lipparini, F. Egidi, J. Goings, B. Peng, A. Petrone, 
 T. Henderson, D. Ranasinghe, V. G. Zakrzewski, J. Gao, N. Rega, 
 G. Zheng, W. Liang, M. Hada, M. Ehara, K. Toyota, R. Fukuda, 
 J. Hasegawa, M. Ishida, T. Nakajima, Y. Honda, O. Kitao, H. Nakai, 
 T. Vreven, K. Throssell, J. A. Montgomery, Jr., J. E. Peralta, 
 F. Ogliaro, M. J. Bearpark, J. J. Heyd, E. N. Brothers, K. N. Kudin, 
 V. N. Staroverov, T. A. Keith, R. Kobayashi, J. Normand, 
 K. Raghavachari, A. P. Rendell, J. C. Burant, S. S. Iyengar, 
 J. Tomasi, M. Cossi, J. M. Millam, M. Klene, C. Adamo, R. Cammi, 
 J. W. Ochterski, R. L. Martin, K. Morokuma, O. Farkas, 
 J. B. Foresman, and D. J. Fox, Gaussian, Inc., Wallingford CT, 2016.
 
 ******************************************
 Gaussian 16:  ES64L-G16RevA.03 25-Dec-2016
                22-Sep-2023 
 ******************************************
 %nprocshared=4
 Will use up to    4 processors via shared memory.
 %mem=4GB
 ----------------
 # 6-31g(d) wb97x
 ----------------
 1/38=1,172=1/1;
 2/12=2,17=6,18=5,40=1/2;
 3/5=1,6=6,7=1,11=2,25=1,30=1,74=-57/1,2,3;
 4//1;
 5/5=2,38=5/2;
 6/7=2,8=2,9=2,10=2,28=1/1;
 99/5=1,9=1/99;
 -----------------------
 tmpdir/M1_conf_2_15.gjf
 -----------------------
 Symbolic Z-matrix:
 Charge =  0 Multiplicity = 1
 C                     12.39183   31.86101   35.7146 
 H                     13.35542   32.37104   35.83603 
 H                     12.52186   31.0599   34.97647 
 H                     12.12015   31.39573   36.66456 
 H                     11.59973   32.56499   35.38811 
 
                          Input orientation:                          
 ---------------------------------------------------------------------
 Center     Atomic      Atomic             Coordinates (Angstroms)
 Number     Number       Type             X           Y           Z
 ---------------------------------------------------------------------
      1          6           0       12.391834   31.861007   35.714601
      2          1           0       13.355423   32.371036   35.836034
      3          1           0       12.521865   31.059896   34.976471
      4          1           0       12.120148   31.395733   36.664556
      5          1           0       11.599728   32.564992   35.388113
 ---------------------------------------------------------------------
                    Distance matrix (angstroms):
                    1          2          3          4          5
     1  C    0.000000
     2  H    1.096987   0.000000
     3  H    1.097052   1.775600   0.000000
     4  H    1.092112   1.778642   1.767426   0.000000
     5  H    1.108883   1.822284   1.812485   1.807570   0.000000
 Stoichiometry    CH4
 Framework group  C1[X(CH4)]
 Deg. of freedom     9
 Full point group                 C1      NOp   1
 Largest Abelian subgroup         C1      NOp   1
 Largest concise Abelian subgroup C1      NOp   1
                         Standard orientation:                         
 ---------------------------------------------------------------------
 Center     Atomic      Atomic             Coordinates (Angstroms)
 Number     Number       Type             X           Y           Z
 ---------------------------------------------------------------------
      1          6           0        0.005457    0.002463   -0.000965
      2          1           0       -0.503802    0.966088   -0.125312
      3          1           0       -0.369625   -0.464138    0.918339
      4          1           0       -0.265166   -0.646606   -0.836537
      5          1           0        1.105848    0.129875    0.049300
 ---------------------------------------------------------------------
 Rotational constants (GHZ):         159.4422570         154.5209055         153.4572934
 Standard basis: 6-31G(d) (6D, 7F)
 There are    23 symmetry adapted cartesian basis functions of A   symmetry.
 There are    23 symmetry adapted basis functions of A   symmetry.
    23 basis functions,    44 primitive gaussians,    23 cartesian basis functions
     5 alpha electrons        5 beta electrons
       nuclear repulsion energy        13.3291579805 Hartrees.
 NAtoms=    5 NActive=    5 NUniq=    5 SFac= 1.00D+00 NAtFMM=   60 NAOKFM=F Big=F
 Integral buffers will be    131072 words long.
 Raffenetti 2 integral format.
 Two-electron integral symmetry is turned on.
 One-electron integrals computed using PRISM.
 NBasis=    23 RedAO= T EigKep=  1.83D-02  NBF=    23
 NBsUse=    23 1.00D-06 EigRej= -1.00D+00 NBFU=    23
 ExpMin= 1.61D-01 ExpMax= 3.05D+03 ExpMxC= 4.57D+02 IAcc=3 IRadAn=         5 AccDes= 0.00D+00
 Harris functional with IExCor= 4538 and IRadAn=       5 diagonalized for initial guess.
 HarFok:  IExCor= 4538 AccDes= 0.00D+00 IRadAn=         5 IDoV= 1 UseB2=F ITyADJ=14
 ICtDFT=  3500011 ScaDFX=  1.000000  1.000000  1.000000  1.000000
 FoFCou: FMM=F IPFlag=           0 FMFlag=      100000 FMFlg1=           0
         NFxFlg=           0 DoJE=T BraDBF=F KetDBF=T FulRan=T
         wScrn=  0.000000 ICntrl=       500 IOpCl=  0 I1Cent=   200000004 NGrid=           0
         NMat0=    1 NMatS0=      1 NMatT0=    0 NMatD0=    1 NMtDS0=    0 NMtDT0=    0
 Petite list used in FoFCou.
 Keep R1 ints in memory in canonical form, NReq=3524626.
 Requested convergence on RMS density matrix=1.00D-08 within 128 cycles.
 Requested convergence on MAX density matrix=1.00D-06.
 Requested convergence on             energy=1.00D-06.
 No special actions if energy rises.
 Integral accuracy reduced to 1.0D-05 until final iterations.
 Initial convergence to 1.0D-05 achieved.  Increase integral accuracy.
 SCF Done:  E(RwB97X) =  -40.4991636253     A.U. after   11 cycles
            NFock= 11  Conv=0.17D-08     -V/T= 2.0118

 **********************************************************************

            Population analysis using the SCF density.

 **********************************************************************

 Orbital symmetries:
       Occupied  (A) (A) (A) (A) (A)
       Virtual   (A) (A) (A) (A) (A) (A) (A) (A) (A) (A) (A) (A)
                 (A) (A) (A) (A) (A) (A)
 The electronic state is 1-A.
 Alpha  occ. eigenvalues --  -10.25126  -0.81612  -0.49689  -0.49348  -0.49136
 Alpha virt. eigenvalues --    0.21497   0.27302   0.27358   0.27491   0.63888
 Alpha virt. eigenvalues --    0.64029   0.64741   1.01119   1.01346   1.01645
 Alpha virt. eigenvalues --    1.06510   1.20674   1.75869   1.75916   2.33101
 Alpha virt. eigenvalues --    2.35494   2.36030   4.30370
          Condensed to atoms (all electrons):
               1          2          3          4          5
     1  C    5.125411   0.385105   0.384652   0.385302   0.384678
     2  H    0.385105   0.520809  -0.025622  -0.025042  -0.021862
     3  H    0.384652  -0.025622   0.523991  -0.026097  -0.022681
     4  H    0.385302  -0.025042  -0.026097   0.521558  -0.023018
     5  H    0.384678  -0.021862  -0.022681  -0.023018   0.517398
 Mulliken charges:
               1
     1  C   -0.665148
     2  H    0.166612
     3  H    0.165756
     4  H    0.167297
     5  H    0.165484
 Sum of Mulliken charges =   0.00000
 Mulliken charges with hydrogens summed into heavy atoms:
               1
     1  C    0.000000
 Electronic spatial extent (au):  <R**2>=             35.6804
 Charge=              0.0000 electrons
 Dipole moment (field-independent basis, Debye):
    X=             -0.0328    Y=             -0.0138    Z=             -0.0008  Tot=              0.0356
 Quadrupole moment (field-independent basis, Debye-Ang):
   XX=             -8.1650   YY=             -8.2982   ZZ=             -8.3342
   XY=             -0.0014   XZ=              0.0029   YZ=              0.0062
 Traceless Quadrupole moment (field-independent basis, Debye-Ang):
   XX=              0.1008   YY=             -0.0324   ZZ=             -0.0684
   XY=             -0.0014   XZ=              0.0029   YZ=              0.0062
 Octapole moment (field-independent basis, Debye-Ang**2):
  XXX=              0.8119  YYY=              0.3503  ZZZ=              0.1175  XYY=             -0.5107
  XXY=              0.2138  XXZ=              0.0688  XZZ=             -0.3998  YZZ=             -0.6044
  YYZ=             -0.1986  XYZ=              0.0593
 Hexadecapole moment (field-independent basis, Debye-Ang**3):
 XXXX=            -15.0595 YYYY=            -15.2695 ZZZZ=            -15.0935 XXXY=              0.0933
 XXXZ=              0.0644 YYYX=             -0.3902 YYYZ=              0.0384 ZZZX=             -0.1411
 ZZZY=              0.0322 XXYY=             -5.1992 XXZZ=             -5.3546 YYZZ=             -4.9393
 XXYZ=             -0.0446 YYXZ=              0.0917 ZZXY=              0.2907
 N-N= 1.332915798047D+01 E-N=-1.196463581770D+02  KE= 4.002847153401D+01
 1\1\GINC-NODE68\SP\RwB97X\6-31G(d)\C1H4\YANZ\22-Sep-2023\0\\# 6-31g(d)
  wb97x\\tmpdir/M1_conf_2_15.gjf\\0,1\C,0,12.39183353,31.86100702,35.71
 46006\H,0,13.35542316,32.3710357,35.83603415\H,0,12.52186466,31.059895
 99,34.97647088\H,0,12.1201476,31.39573325,36.66455593\H,0,11.59972826,
 32.56499249,35.38811281\\Version=ES64L-G16RevA.03\State=1-A\HF=-40.499
 1636\RMSD=1.688e-09\Dipole=0.0069768,-0.0114661,0.0040439\Quadrupole=0
 .0392679,0.002004,-0.0412719,-0.0425477,0.0207148,-0.0235498\PG=C01 [X
 (C1H4)]\\@


 I DON'T EXACTLY UNDERSTAND WHAT YOU ARE SAYING,
 BUT YOU ARE ABSOLUTELY RIGHT.
     M.S.GORDON, IN A NDSU FACULTY MEETING
 Job cpu time:       0 days  0 hours  0 minutes  6.5 seconds.
 Elapsed time:       0 days  0 hours  0 minutes  1.8 seconds.
 File lengths (MBytes):  RWF=      6 Int=      0 D2E=      0 Chk=      1 Scr=      1
 Normal termination of Gaussian 16 at Fri Sep 22 16:29:41 2023.
