 Entering Gaussian System, Link 0=g16
 Initial command:
 /share/apps/gaussian/g16/l1.exe "/tmp/55567.mgr/Gau-455472.inp" -scrdir="/tmp/55567.mgr/"
 Entering Link 1 = /share/apps/gaussian/g16/l1.exe PID=    455473.
  
 Copyright (c) 1988,1990,1992,1993,1995,1998,2003,2009,2016,
            Gaussian, Inc.  All Rights Reserved.
  
 This is part of the Gaussian(R) 16 program.  It is based on
 the Gaussian(R) 09 system (copyright 2009, Gaussian, Inc.),
 the Gaussian(R) 03 system (copyright 2003, Gaussian, Inc.),
 the Gaussian(R) 98 system (copyright 1998, Gaussian, Inc.),
 the Gaussian(R) 94 system (copyright 1995, Gaussian, Inc.),
 the Gaussian 92(TM) system (copyright 1992, Gaussian, Inc.),
 the Gaussian 90(TM) system (copyright 1990, Gaussian, Inc.),
 the Gaussian 88(TM) system (copyright 1988, Gaussian, Inc.),
 the Gaussian 86(TM) system (copyright 1986, Carnegie Mellon
 University), and the Gaussian 82(TM) system (copyright 1983,
 Carnegie Mellon University). Gaussian is a federally registered
 trademark of Gaussian, Inc.
  
 This software contains proprietary and confidential information,
 including trade secrets, belonging to Gaussian, Inc.
  
 This software is provided under written license and may be
 used, copied, transmitted, or stored only in accord with that
 written license.
  
 The following legend is applicable only to US Government
 contracts under FAR:
  
                    RESTRICTED RIGHTS LEGEND
  
 Use, reproduction and disclosure by the US Government is
 subject to restrictions as set forth in subparagraphs (a)
 and (c) of the Commercial Computer Software - Restricted
 Rights clause in FAR 52.227-19.
  
 Gaussian, Inc.
 340 Quinnipiac St., Bldg. 40, Wallingford CT 06492
  
  
 ---------------------------------------------------------------
 Warning -- This program may not be used in any manner that
 competes with the business of Gaussian, Inc. or will provide
 assistance to any competitor of Gaussian, Inc.  The licensee
 of this program is prohibited from giving any competitor of
 Gaussian, Inc. access to this program.  By using this program,
 the user acknowledges that Gaussian, Inc. is engaged in the
 business of creating and licensing software in the field of
 computational chemistry and represents and warrants to the
 licensee that it is not a competitor of Gaussian, Inc. and that
 it will not use this program in any manner prohibited above.
 ---------------------------------------------------------------
  

 Cite this work as:
 Gaussian 16, Revision A.03,
 M. J. Frisch, G. W. Trucks, H. B. Schlegel, G. E. Scuseria, 
 M. A. Robb, J. R. Cheeseman, G. Scalmani, V. Barone, 
 G. A. Petersson, H. Nakatsuji, X. Li, M. Caricato, A. V. Marenich, 
 J. Bloino, B. G. Janesko, R. Gomperts, B. Mennucci, H. P. Hratchian, 
 J. V. Ortiz, A. F. Izmaylov, J. L. Sonnenberg, D. Williams-Young, 
 F. Ding, F. Lipparini, F. Egidi, J. Goings, B. Peng, A. Petrone, 
 T. Henderson, D. Ranasinghe, V. G. Zakrzewski, J. Gao, N. Rega, 
 G. Zheng, W. Liang, M. Hada, M. Ehara, K. Toyota, R. Fukuda, 
 J. Hasegawa, M. Ishida, T. Nakajima, Y. Honda, O. Kitao, H. Nakai, 
 T. Vreven, K. Throssell, J. A. Montgomery, Jr., J. E. Peralta, 
 F. Ogliaro, M. J. Bearpark, J. J. Heyd, E. N. Brothers, K. N. Kudin, 
 V. N. Staroverov, T. A. Keith, R. Kobayashi, J. Normand, 
 K. Raghavachari, A. P. Rendell, J. C. Burant, S. S. Iyengar, 
 J. Tomasi, M. Cossi, J. M. Millam, M. Klene, C. Adamo, R. Cammi, 
 J. W. Ochterski, R. L. Martin, K. Morokuma, O. Farkas, 
 J. B. Foresman, and D. J. Fox, Gaussian, Inc., Wallingford CT, 2016.
 
 ******************************************
 Gaussian 16:  ES64L-G16RevA.03 25-Dec-2016
                22-Sep-2023 
 ******************************************
 %nprocshared=4
 Will use up to    4 processors via shared memory.
 %mem=4GB
 ----------------
 # 6-31g(d) wb97x
 ----------------
 1/38=1,172=1/1;
 2/12=2,17=6,18=5,40=1/2;
 3/5=1,6=6,7=1,11=2,25=1,30=1,74=-57/1,2,3;
 4//1;
 5/5=2,38=5/2;
 6/7=2,8=2,9=2,10=2,28=1/1;
 99/5=1,9=1/99;
 ----------------------
 tmpdir/M1_conf_0_9.gjf
 ----------------------
 Symbolic Z-matrix:
 Charge =  0 Multiplicity = 1
 C                     8.649     30.723    36.413 
 H                     8.18488   30.78074   35.38632 
 H                     8.89512   29.64586   36.38332 
 H                     7.73618   31.03861   36.94578 
 H                     9.47009   31.49729   36.33253 
 
                          Input orientation:                          
 ---------------------------------------------------------------------
 Center     Atomic      Atomic             Coordinates (Angstroms)
 Number     Number       Type             X           Y           Z
 ---------------------------------------------------------------------
      1          6           0        8.649000   30.723000   36.413000
      2          1           0        8.184877   30.780738   35.386324
      3          1           0        8.895121   29.645858   36.383321
      4          1           0        7.736180   31.038614   36.945780
      5          1           0        9.470090   31.497288   36.332533
 ---------------------------------------------------------------------
                    Distance matrix (angstroms):
                    1          2          3          4          5
     1  C    0.000000
     2  H    1.128188   0.000000
     3  H    1.105302   1.669252   0.000000
     4  H    1.103045   1.643086   1.897176   0.000000
     5  H    1.131453   1.749436   1.939320   1.895494   0.000000
 Stoichiometry    CH4
 Framework group  C1[X(CH4)]
 Deg. of freedom     9
 Full point group                 C1      NOp   1
 Largest Abelian subgroup         C1      NOp   1
 Largest concise Abelian subgroup C1      NOp   1
                         Standard orientation:                         
 ---------------------------------------------------------------------
 Center     Atomic      Atomic             Coordinates (Angstroms)
 Number     Number       Type             X           Y           Z
 ---------------------------------------------------------------------
      1          6           0       -0.009451   -0.014675   -0.065977
      2          1           0        0.183513    0.156264    1.032363
      3          1           0        0.882817   -0.637924   -0.258622
      4          1           0        0.028766    1.054433   -0.334779
      5          1           0       -1.038391   -0.484721   -0.043098
 ---------------------------------------------------------------------
 Rotational constants (GHZ):         163.3879864         157.5987844         136.5146021
 Standard basis: 6-31G(d) (6D, 7F)
 There are    23 symmetry adapted cartesian basis functions of A   symmetry.
 There are    23 symmetry adapted basis functions of A   symmetry.
    23 basis functions,    44 primitive gaussians,    23 cartesian basis functions
     5 alpha electrons        5 beta electrons
       nuclear repulsion energy        13.1440506865 Hartrees.
 NAtoms=    5 NActive=    5 NUniq=    5 SFac= 1.00D+00 NAtFMM=   60 NAOKFM=F Big=F
 Integral buffers will be    131072 words long.
 Raffenetti 2 integral format.
 Two-electron integral symmetry is turned on.
 One-electron integrals computed using PRISM.
 NBasis=    23 RedAO= T EigKep=  1.89D-02  NBF=    23
 NBsUse=    23 1.00D-06 EigRej= -1.00D+00 NBFU=    23
 ExpMin= 1.61D-01 ExpMax= 3.05D+03 ExpMxC= 4.57D+02 IAcc=3 IRadAn=         5 AccDes= 0.00D+00
 Harris functional with IExCor= 4538 and IRadAn=       5 diagonalized for initial guess.
 HarFok:  IExCor= 4538 AccDes= 0.00D+00 IRadAn=         5 IDoV= 1 UseB2=F ITyADJ=14
 ICtDFT=  3500011 ScaDFX=  1.000000  1.000000  1.000000  1.000000
 FoFCou: FMM=F IPFlag=           0 FMFlag=      100000 FMFlg1=           0
         NFxFlg=           0 DoJE=T BraDBF=F KetDBF=T FulRan=T
         wScrn=  0.000000 ICntrl=       500 IOpCl=  0 I1Cent=   200000004 NGrid=           0
         NMat0=    1 NMatS0=      1 NMatT0=    0 NMatD0=    1 NMtDS0=    0 NMtDT0=    0
 Petite list used in FoFCou.
 Keep R1 ints in memory in canonical form, NReq=3524626.
 Requested convergence on RMS density matrix=1.00D-08 within 128 cycles.
 Requested convergence on MAX density matrix=1.00D-06.
 Requested convergence on             energy=1.00D-06.
 No special actions if energy rises.
 Integral accuracy reduced to 1.0D-05 until final iterations.
 Initial convergence to 1.0D-05 achieved.  Increase integral accuracy.
 SCF Done:  E(RwB97X) =  -40.4828038628     A.U. after   12 cycles
            NFock= 12  Conv=0.41D-08     -V/T= 2.0136

 **********************************************************************

            Population analysis using the SCF density.

 **********************************************************************

 Orbital symmetries:
       Occupied  (A) (A) (A) (A) (A)
       Virtual   (A) (A) (A) (A) (A) (A) (A) (A) (A) (A) (A) (A)
                 (A) (A) (A) (A) (A) (A)
 The electronic state is 1-A.
 Alpha  occ. eigenvalues --  -10.25959  -0.81595  -0.51086  -0.50318  -0.45222
 Alpha virt. eigenvalues --    0.20427   0.24480   0.27048   0.27796   0.63692
 Alpha virt. eigenvalues --    0.65248   0.66372   0.95244   1.00354   1.02317
 Alpha virt. eigenvalues --    1.06420   1.23307   1.76383   1.77329   2.26666
 Alpha virt. eigenvalues --    2.30277   2.35433   4.28394
          Condensed to atoms (all electrons):
               1          2          3          4          5
     1  C    5.154534   0.365950   0.385023   0.384071   0.383207
     2  H    0.365950   0.592578  -0.037894  -0.040627  -0.029410
     3  H    0.385023  -0.037894   0.507713  -0.016755  -0.015322
     4  H    0.384071  -0.040627  -0.016755   0.517470  -0.018770
     5  H    0.383207  -0.029410  -0.015322  -0.018770   0.508758
 Mulliken charges:
               1
     1  C   -0.672784
     2  H    0.149402
     3  H    0.177234
     4  H    0.174611
     5  H    0.171537
 Sum of Mulliken charges =  -0.00000
 Mulliken charges with hydrogens summed into heavy atoms:
               1
     1  C   -0.000000
 Electronic spatial extent (au):  <R**2>=             36.2877
 Charge=             -0.0000 electrons
 Dipole moment (field-independent basis, Debye):
    X=              0.0629    Y=              0.0669    Z=              0.3013  Tot=              0.3150
 Quadrupole moment (field-independent basis, Debye-Ang):
   XX=             -7.9226   YY=             -8.0658   ZZ=             -9.0689
   XY=             -0.0252   XZ=             -0.0349   YZ=             -0.0216
 Traceless Quadrupole moment (field-independent basis, Debye-Ang):
   XX=              0.4299   YY=              0.2866   ZZ=             -0.7165
   XY=             -0.0252   XZ=             -0.0349   YZ=             -0.0216
 Octapole moment (field-independent basis, Debye-Ang**2):
  XXX=             -0.2076  YYY=              0.8496  ZZZ=              0.7859  XYY=              0.1943
  XXY=             -0.8597  XXZ=              0.0454  XZZ=              0.1662  YZZ=              0.1565
  YYZ=             -0.1348  XYZ=              0.1044
 Hexadecapole moment (field-independent basis, Debye-Ang**3):
 XXXX=            -15.5195 YYYY=            -15.4614 ZZZZ=            -15.3082 XXXY=              0.0502
 XXXZ=             -0.2253 YYYX=             -0.1388 YYYZ=             -0.3674 ZZZX=              0.1361
 ZZZY=              0.1153 XXYY=             -5.1387 XXZZ=             -5.6132 YYZZ=             -5.4580
 XXYZ=              0.1171 YYXZ=             -0.1139 ZZXY=             -0.0116
 N-N= 1.314405068650D+01 E-N=-1.191837457700D+02  KE= 3.994021193209D+01
 1\1\GINC-NODE68\SP\RwB97X\6-31G(d)\C1H4\YANZ\22-Sep-2023\0\\# 6-31g(d)
  wb97x\\tmpdir/M1_conf_0_9.gjf\\0,1\C,0,8.649,30.723,36.413\H,0,8.1848
 77,30.780738,35.386324\H,0,8.89512124,29.64585763,36.38332067\H,0,7.73
 617975,31.0386143,36.9457801\H,0,9.47009,31.49728787,36.33253318\\Vers
 ion=ES64L-G16RevA.03\State=1-A\HF=-40.4828039\RMSD=4.112e-09\Dipole=-0
 .0586794,0.0055354,-0.109027\Quadrupole=0.1717504,0.3025786,-0.474329,
 0.0508936,-0.1737013,0.1056843\PG=C01 [X(C1H4)]\\@


 IT WAS AN ACT OF DESPARATION. FOR SIX YEARS I HAD STRUGGLED WITH THE
 BLACKBODY THEORY. I KNEW THE PROBLEM WAS FUNDAMENTAL, AND I KNEW
 THE ANSWER. I HAD TO FIND A THEORETICAL EXPLANATION AT ANY COST,
 EXCEPT FOR THE INVIOLABLITY OF THE TWO LAWS OF THERMODYNAMICS.
   -- MAX PLANCK, 1931
 Job cpu time:       0 days  0 hours  0 minutes  6.8 seconds.
 Elapsed time:       0 days  0 hours  0 minutes  1.9 seconds.
 File lengths (MBytes):  RWF=      6 Int=      0 D2E=      0 Chk=      1 Scr=      1
 Normal termination of Gaussian 16 at Fri Sep 22 16:29:27 2023.
