 Entering Gaussian System, Link 0=g16
 Initial command:
 /share/apps/gaussian/g16/l1.exe "/tmp/55567.mgr/Gau-454940.inp" -scrdir="/tmp/55567.mgr/"
 Entering Link 1 = /share/apps/gaussian/g16/l1.exe PID=    454941.
  
 Copyright (c) 1988,1990,1992,1993,1995,1998,2003,2009,2016,
            Gaussian, Inc.  All Rights Reserved.
  
 This is part of the Gaussian(R) 16 program.  It is based on
 the Gaussian(R) 09 system (copyright 2009, Gaussian, Inc.),
 the Gaussian(R) 03 system (copyright 2003, Gaussian, Inc.),
 the Gaussian(R) 98 system (copyright 1998, Gaussian, Inc.),
 the Gaussian(R) 94 system (copyright 1995, Gaussian, Inc.),
 the Gaussian 92(TM) system (copyright 1992, Gaussian, Inc.),
 the Gaussian 90(TM) system (copyright 1990, Gaussian, Inc.),
 the Gaussian 88(TM) system (copyright 1988, Gaussian, Inc.),
 the Gaussian 86(TM) system (copyright 1986, Carnegie Mellon
 University), and the Gaussian 82(TM) system (copyright 1983,
 Carnegie Mellon University). Gaussian is a federally registered
 trademark of Gaussian, Inc.
  
 This software contains proprietary and confidential information,
 including trade secrets, belonging to Gaussian, Inc.
  
 This software is provided under written license and may be
 used, copied, transmitted, or stored only in accord with that
 written license.
  
 The following legend is applicable only to US Government
 contracts under FAR:
  
                    RESTRICTED RIGHTS LEGEND
  
 Use, reproduction and disclosure by the US Government is
 subject to restrictions as set forth in subparagraphs (a)
 and (c) of the Commercial Computer Software - Restricted
 Rights clause in FAR 52.227-19.
  
 Gaussian, Inc.
 340 Quinnipiac St., Bldg. 40, Wallingford CT 06492
  
  
 ---------------------------------------------------------------
 Warning -- This program may not be used in any manner that
 competes with the business of Gaussian, Inc. or will provide
 assistance to any competitor of Gaussian, Inc.  The licensee
 of this program is prohibited from giving any competitor of
 Gaussian, Inc. access to this program.  By using this program,
 the user acknowledges that Gaussian, Inc. is engaged in the
 business of creating and licensing software in the field of
 computational chemistry and represents and warrants to the
 licensee that it is not a competitor of Gaussian, Inc. and that
 it will not use this program in any manner prohibited above.
 ---------------------------------------------------------------
  

 Cite this work as:
 Gaussian 16, Revision A.03,
 M. J. Frisch, G. W. Trucks, H. B. Schlegel, G. E. Scuseria, 
 M. A. Robb, J. R. Cheeseman, G. Scalmani, V. Barone, 
 G. A. Petersson, H. Nakatsuji, X. Li, M. Caricato, A. V. Marenich, 
 J. Bloino, B. G. Janesko, R. Gomperts, B. Mennucci, H. P. Hratchian, 
 J. V. Ortiz, A. F. Izmaylov, J. L. Sonnenberg, D. Williams-Young, 
 F. Ding, F. Lipparini, F. Egidi, J. Goings, B. Peng, A. Petrone, 
 T. Henderson, D. Ranasinghe, V. G. Zakrzewski, J. Gao, N. Rega, 
 G. Zheng, W. Liang, M. Hada, M. Ehara, K. Toyota, R. Fukuda, 
 J. Hasegawa, M. Ishida, T. Nakajima, Y. Honda, O. Kitao, H. Nakai, 
 T. Vreven, K. Throssell, J. A. Montgomery, Jr., J. E. Peralta, 
 F. Ogliaro, M. J. Bearpark, J. J. Heyd, E. N. Brothers, K. N. Kudin, 
 V. N. Staroverov, T. A. Keith, R. Kobayashi, J. Normand, 
 K. Raghavachari, A. P. Rendell, J. C. Burant, S. S. Iyengar, 
 J. Tomasi, M. Cossi, J. M. Millam, M. Klene, C. Adamo, R. Cammi, 
 J. W. Ochterski, R. L. Martin, K. Morokuma, O. Farkas, 
 J. B. Foresman, and D. J. Fox, Gaussian, Inc., Wallingford CT, 2016.
 
 ******************************************
 Gaussian 16:  ES64L-G16RevA.03 25-Dec-2016
                22-Sep-2023 
 ******************************************
 %nprocshared=4
 Will use up to    4 processors via shared memory.
 %mem=4GB
 ----------------
 # 6-31g(d) wb97x
 ----------------
 1/38=1,172=1/1;
 2/12=2,17=6,18=5,40=1/2;
 3/5=1,6=6,7=1,11=2,25=1,30=1,74=-57/1,2,3;
 4//1;
 5/5=2,38=5/2;
 6/7=2,8=2,9=2,10=2,28=1/1;
 99/5=1,9=1/99;
 --------------------
 tmpdir/M1_ref_11.gjf
 --------------------
 Symbolic Z-matrix:
 Charge =  0 Multiplicity = 1
 C                     9.79769   32.27465   34.79924 
 H                     9.74144   31.63216   33.9002 
 H                     9.68564   31.58194   35.7431 
 H                     8.99931   33.03979   34.72557 
 H                     10.81026   32.71239   34.85388 
 
                          Input orientation:                          
 ---------------------------------------------------------------------
 Center     Atomic      Atomic             Coordinates (Angstroms)
 Number     Number       Type             X           Y           Z
 ---------------------------------------------------------------------
      1          6           0        9.797688   32.274648   34.799237
      2          1           0        9.741440   31.632164   33.900198
      3          1           0        9.685642   31.581937   35.743097
      4          1           0        8.999313   33.039789   34.725574
      5          1           0       10.810260   32.712393   34.853880
 ---------------------------------------------------------------------
                    Distance matrix (angstroms):
                    1          2          3          4          5
     1  C    0.000000
     2  H    1.106445   0.000000
     3  H    1.176127   1.844428   0.000000
     4  H    1.108273   1.792598   1.905711   0.000000
     5  H    1.104495   1.794096   1.825761   1.844772   0.000000
 Stoichiometry    CH4
 Framework group  C1[X(CH4)]
 Deg. of freedom     9
 Full point group                 C1      NOp   1
 Largest Abelian subgroup         C1      NOp   1
 Largest concise Abelian subgroup C1      NOp   1
                         Standard orientation:                         
 ---------------------------------------------------------------------
 Center     Atomic      Atomic             Coordinates (Angstroms)
 Number     Number       Type             X           Y           Z
 ---------------------------------------------------------------------
      1          6           0        0.011452    0.000158   -0.008462
      2          1           0        0.280283    0.124530    1.057597
      3          1           0       -0.983956   -0.624392   -0.057180
      4          1           0        0.859806   -0.495192   -0.521486
      5          1           0       -0.224846    0.994104   -0.428158
 ---------------------------------------------------------------------
 Rotational constants (GHZ):         155.8972294         146.8145372         144.2348623
 Standard basis: 6-31G(d) (6D, 7F)
 There are    23 symmetry adapted cartesian basis functions of A   symmetry.
 There are    23 symmetry adapted basis functions of A   symmetry.
    23 basis functions,    44 primitive gaussians,    23 cartesian basis functions
     5 alpha electrons        5 beta electrons
       nuclear repulsion energy        13.0401807264 Hartrees.
 NAtoms=    5 NActive=    5 NUniq=    5 SFac= 1.00D+00 NAtFMM=   60 NAOKFM=F Big=F
 Integral buffers will be    131072 words long.
 Raffenetti 2 integral format.
 Two-electron integral symmetry is turned on.
 One-electron integrals computed using PRISM.
 NBasis=    23 RedAO= T EigKep=  1.97D-02  NBF=    23
 NBsUse=    23 1.00D-06 EigRej= -1.00D+00 NBFU=    23
 ExpMin= 1.61D-01 ExpMax= 3.05D+03 ExpMxC= 4.57D+02 IAcc=3 IRadAn=         5 AccDes= 0.00D+00
 Harris functional with IExCor= 4538 and IRadAn=       5 diagonalized for initial guess.
 HarFok:  IExCor= 4538 AccDes= 0.00D+00 IRadAn=         5 IDoV= 1 UseB2=F ITyADJ=14
 ICtDFT=  3500011 ScaDFX=  1.000000  1.000000  1.000000  1.000000
 FoFCou: FMM=F IPFlag=           0 FMFlag=      100000 FMFlg1=           0
         NFxFlg=           0 DoJE=T BraDBF=F KetDBF=T FulRan=T
         wScrn=  0.000000 ICntrl=       500 IOpCl=  0 I1Cent=   200000004 NGrid=           0
         NMat0=    1 NMatS0=      1 NMatT0=    0 NMatD0=    1 NMtDS0=    0 NMtDT0=    0
 Petite list used in FoFCou.
 Keep R1 ints in memory in canonical form, NReq=3524626.
 Requested convergence on RMS density matrix=1.00D-08 within 128 cycles.
 Requested convergence on MAX density matrix=1.00D-06.
 Requested convergence on             energy=1.00D-06.
 No special actions if energy rises.
 Integral accuracy reduced to 1.0D-05 until final iterations.
 Initial convergence to 1.0D-05 achieved.  Increase integral accuracy.
 SCF Done:  E(RwB97X) =  -40.4946329479     A.U. after   11 cycles
            NFock= 11  Conv=0.23D-08     -V/T= 2.0147

 **********************************************************************

            Population analysis using the SCF density.

 **********************************************************************

 Orbital symmetries:
       Occupied  (A) (A) (A) (A) (A)
       Virtual   (A) (A) (A) (A) (A) (A) (A) (A) (A) (A) (A) (A)
                 (A) (A) (A) (A) (A) (A)
 The electronic state is 1-A.
 Alpha  occ. eigenvalues --  -10.26215  -0.80935  -0.50112  -0.48905  -0.47844
 Alpha virt. eigenvalues --    0.20659   0.25473   0.26899   0.27429   0.64033
 Alpha virt. eigenvalues --    0.64569   0.66391   0.96607   1.00215   1.01422
 Alpha virt. eigenvalues --    1.03782   1.19842   1.76304   1.76566   2.27076
 Alpha virt. eigenvalues --    2.32891   2.34686   4.28639
          Condensed to atoms (all electrons):
               1          2          3          4          5
     1  C    5.131154   0.381460   0.374753   0.383473   0.382469
     2  H    0.381460   0.527910  -0.023581  -0.026595  -0.025354
     3  H    0.374753  -0.023581   0.545031  -0.018761  -0.026078
     4  H    0.383473  -0.026595  -0.018761   0.513123  -0.021181
     5  H    0.382469  -0.025354  -0.026078  -0.021181   0.521574
 Mulliken charges:
               1
     1  C   -0.653308
     2  H    0.166160
     3  H    0.148637
     4  H    0.169941
     5  H    0.168570
 Sum of Mulliken charges =   0.00000
 Mulliken charges with hydrogens summed into heavy atoms:
               1
     1  C    0.000000
 Electronic spatial extent (au):  <R**2>=             36.6321
 Charge=              0.0000 electrons
 Dipole moment (field-independent basis, Debye):
    X=              0.0235    Y=              0.0456    Z=              0.0348  Tot=              0.0620
 Quadrupole moment (field-independent basis, Debye-Ang):
   XX=             -8.1737   YY=             -8.3869   ZZ=             -8.4372
   XY=             -0.0986   XZ=             -0.0178   YZ=             -0.0045
 Traceless Quadrupole moment (field-independent basis, Debye-Ang):
   XX=              0.1589   YY=             -0.0543   ZZ=             -0.1047
   XY=             -0.0986   XZ=             -0.0178   YZ=             -0.0045
 Octapole moment (field-independent basis, Debye-Ang**2):
  XXX=             -0.0176  YYY=              0.6552  ZZZ=              0.7561  XYY=             -0.2167
  XXY=             -0.6366  XXZ=             -0.2807  XZZ=              0.4291  YZZ=              0.1836
  YYZ=             -0.3863  XYZ=              0.2576
 Hexadecapole moment (field-independent basis, Debye-Ang**3):
 XXXX=            -16.3065 YYYY=            -15.7659 ZZZZ=            -15.2156 XXXY=              0.0933
 XXXZ=             -0.3212 YYYX=             -0.3157 YYYZ=             -0.3947 ZZZX=              0.2236
 ZZZY=              0.1455 XXYY=             -5.1642 XXZZ=             -5.4562 YYZZ=             -5.3450
 XXYZ=              0.2355 YYXZ=              0.0022 ZZXY=             -0.1983
 N-N= 1.304018072641D+01 E-N=-1.189756226799D+02  KE= 3.990972036806D+01
 1\1\GINC-NODE68\SP\RwB97X\6-31G(d)\C1H4\YANZ\22-Sep-2023\0\\# 6-31g(d)
  wb97x\\tmpdir/M1_ref_11.gjf\\0,1\C,0,9.797688,32.274648,34.799237\H,0
 ,9.74144,31.632164,33.900198\H,0,9.68564206,31.58193706,35.7430972\H,0
 ,8.99931268,33.03978899,34.72557436\H,0,10.81026046,32.71239272,34.853
 88026\\Version=ES64L-G16RevA.03\State=1-A\HF=-40.4946329\RMSD=2.345e-0
 9\Dipole=0.011319,-0.0008478,-0.0216053\Quadrupole=0.0493015,-0.018064
 ,-0.0312375,-0.073687,0.0776236,-0.0552831\PG=C01 [X(C1H4)]\\@


 IN NATURE THERE ARE NEITHER REWARDS OR
 PUNISHMENTS -- THERE ARE CONSEQUENCES.

                            -- ROBERT GREEN INGERSOLL
 Job cpu time:       0 days  0 hours  0 minutes  7.3 seconds.
 Elapsed time:       0 days  0 hours  0 minutes  2.0 seconds.
 File lengths (MBytes):  RWF=      6 Int=      0 D2E=      0 Chk=      1 Scr=      1
 Normal termination of Gaussian 16 at Fri Sep 22 16:29:21 2023.
