 Entering Gaussian System, Link 0=g16
 Initial command:
 /share/apps/gaussian/g16/l1.exe "/tmp/55567.mgr/Gau-454733.inp" -scrdir="/tmp/55567.mgr/"
 Entering Link 1 = /share/apps/gaussian/g16/l1.exe PID=    454739.
  
 Copyright (c) 1988,1990,1992,1993,1995,1998,2003,2009,2016,
            Gaussian, Inc.  All Rights Reserved.
  
 This is part of the Gaussian(R) 16 program.  It is based on
 the Gaussian(R) 09 system (copyright 2009, Gaussian, Inc.),
 the Gaussian(R) 03 system (copyright 2003, Gaussian, Inc.),
 the Gaussian(R) 98 system (copyright 1998, Gaussian, Inc.),
 the Gaussian(R) 94 system (copyright 1995, Gaussian, Inc.),
 the Gaussian 92(TM) system (copyright 1992, Gaussian, Inc.),
 the Gaussian 90(TM) system (copyright 1990, Gaussian, Inc.),
 the Gaussian 88(TM) system (copyright 1988, Gaussian, Inc.),
 the Gaussian 86(TM) system (copyright 1986, Carnegie Mellon
 University), and the Gaussian 82(TM) system (copyright 1983,
 Carnegie Mellon University). Gaussian is a federally registered
 trademark of Gaussian, Inc.
  
 This software contains proprietary and confidential information,
 including trade secrets, belonging to Gaussian, Inc.
  
 This software is provided under written license and may be
 used, copied, transmitted, or stored only in accord with that
 written license.
  
 The following legend is applicable only to US Government
 contracts under FAR:
  
                    RESTRICTED RIGHTS LEGEND
  
 Use, reproduction and disclosure by the US Government is
 subject to restrictions as set forth in subparagraphs (a)
 and (c) of the Commercial Computer Software - Restricted
 Rights clause in FAR 52.227-19.
  
 Gaussian, Inc.
 340 Quinnipiac St., Bldg. 40, Wallingford CT 06492
  
  
 ---------------------------------------------------------------
 Warning -- This program may not be used in any manner that
 competes with the business of Gaussian, Inc. or will provide
 assistance to any competitor of Gaussian, Inc.  The licensee
 of this program is prohibited from giving any competitor of
 Gaussian, Inc. access to this program.  By using this program,
 the user acknowledges that Gaussian, Inc. is engaged in the
 business of creating and licensing software in the field of
 computational chemistry and represents and warrants to the
 licensee that it is not a competitor of Gaussian, Inc. and that
 it will not use this program in any manner prohibited above.
 ---------------------------------------------------------------
  

 Cite this work as:
 Gaussian 16, Revision A.03,
 M. J. Frisch, G. W. Trucks, H. B. Schlegel, G. E. Scuseria, 
 M. A. Robb, J. R. Cheeseman, G. Scalmani, V. Barone, 
 G. A. Petersson, H. Nakatsuji, X. Li, M. Caricato, A. V. Marenich, 
 J. Bloino, B. G. Janesko, R. Gomperts, B. Mennucci, H. P. Hratchian, 
 J. V. Ortiz, A. F. Izmaylov, J. L. Sonnenberg, D. Williams-Young, 
 F. Ding, F. Lipparini, F. Egidi, J. Goings, B. Peng, A. Petrone, 
 T. Henderson, D. Ranasinghe, V. G. Zakrzewski, J. Gao, N. Rega, 
 G. Zheng, W. Liang, M. Hada, M. Ehara, K. Toyota, R. Fukuda, 
 J. Hasegawa, M. Ishida, T. Nakajima, Y. Honda, O. Kitao, H. Nakai, 
 T. Vreven, K. Throssell, J. A. Montgomery, Jr., J. E. Peralta, 
 F. Ogliaro, M. J. Bearpark, J. J. Heyd, E. N. Brothers, K. N. Kudin, 
 V. N. Staroverov, T. A. Keith, R. Kobayashi, J. Normand, 
 K. Raghavachari, A. P. Rendell, J. C. Burant, S. S. Iyengar, 
 J. Tomasi, M. Cossi, J. M. Millam, M. Klene, C. Adamo, R. Cammi, 
 J. W. Ochterski, R. L. Martin, K. Morokuma, O. Farkas, 
 J. B. Foresman, and D. J. Fox, Gaussian, Inc., Wallingford CT, 2016.
 
 ******************************************
 Gaussian 16:  ES64L-G16RevA.03 25-Dec-2016
                22-Sep-2023 
 ******************************************
 %nprocshared=4
 Will use up to    4 processors via shared memory.
 %mem=4GB
 ----------------
 # 6-31g(d) wb97x
 ----------------
 1/38=1,172=1/1;
 2/12=2,17=6,18=5,40=1/2;
 3/5=1,6=6,7=1,11=2,25=1,30=1,74=-57/1,2,3;
 4//1;
 5/5=2,38=5/2;
 6/7=2,8=2,9=2,10=2,28=1/1;
 99/5=1,9=1/99;
 -------------------
 tmpdir/M1_ref_3.gjf
 -------------------
 Symbolic Z-matrix:
 Charge =  0 Multiplicity = 1
 C                     8.00719   28.21102   36.75394 
 H                     7.68017   27.90277   35.75447 
 H                     7.16806   28.60906   37.35314 
 H                     8.37618   27.22146   37.28808 
 H                     8.82637   28.95083   36.65997 
 
                          Input orientation:                          
 ---------------------------------------------------------------------
 Center     Atomic      Atomic             Coordinates (Angstroms)
 Number     Number       Type             X           Y           Z
 ---------------------------------------------------------------------
      1          6           0        8.007186   28.211016   36.753941
      2          1           0        7.680165   27.902771   35.754467
      3          1           0        7.168058   28.609058   37.353136
      4          1           0        8.376176   27.221461   37.288076
      5          1           0        8.826367   28.950825   36.659973
 ---------------------------------------------------------------------
                    Distance matrix (angstroms):
                    1          2          3          4          5
     1  C    0.000000
     2  H    1.095859   0.000000
     3  H    1.105264   1.821219   0.000000
     4  H    1.183500   1.816748   1.840980   0.000000
     5  H    1.107793   1.797815   1.829554   1.894172   0.000000
 Stoichiometry    CH4
 Framework group  C1[X(CH4)]
 Deg. of freedom     9
 Full point group                 C1      NOp   1
 Largest Abelian subgroup         C1      NOp   1
 Largest concise Abelian subgroup C1      NOp   1
                         Standard orientation:                         
 ---------------------------------------------------------------------
 Center     Atomic      Atomic             Coordinates (Angstroms)
 Number     Number       Type             X           Y           Z
 ---------------------------------------------------------------------
      1          6           0       -0.015772    0.004810    0.002171
      2          1           0       -0.056700   -0.590659    0.921218
      3          1           0       -0.024831    1.088841    0.217583
      4          1           0        1.031150   -0.242088   -0.491457
      5          1           0       -0.854988   -0.284952   -0.660369
 ---------------------------------------------------------------------
 Rotational constants (GHZ):         154.3827111         148.6157371         144.3033804
 Standard basis: 6-31G(d) (6D, 7F)
 There are    23 symmetry adapted cartesian basis functions of A   symmetry.
 There are    23 symmetry adapted basis functions of A   symmetry.
    23 basis functions,    44 primitive gaussians,    23 cartesian basis functions
     5 alpha electrons        5 beta electrons
       nuclear repulsion energy        13.0511296641 Hartrees.
 NAtoms=    5 NActive=    5 NUniq=    5 SFac= 1.00D+00 NAtFMM=   60 NAOKFM=F Big=F
 Integral buffers will be    131072 words long.
 Raffenetti 2 integral format.
 Two-electron integral symmetry is turned on.
 One-electron integrals computed using PRISM.
 NBasis=    23 RedAO= T EigKep=  1.96D-02  NBF=    23
 NBsUse=    23 1.00D-06 EigRej= -1.00D+00 NBFU=    23
 ExpMin= 1.61D-01 ExpMax= 3.05D+03 ExpMxC= 4.57D+02 IAcc=3 IRadAn=         5 AccDes= 0.00D+00
 Harris functional with IExCor= 4538 and IRadAn=       5 diagonalized for initial guess.
 HarFok:  IExCor= 4538 AccDes= 0.00D+00 IRadAn=         5 IDoV= 1 UseB2=F ITyADJ=14
 ICtDFT=  3500011 ScaDFX=  1.000000  1.000000  1.000000  1.000000
 FoFCou: FMM=F IPFlag=           0 FMFlag=      100000 FMFlg1=           0
         NFxFlg=           0 DoJE=T BraDBF=F KetDBF=T FulRan=T
         wScrn=  0.000000 ICntrl=       500 IOpCl=  0 I1Cent=   200000004 NGrid=           0
         NMat0=    1 NMatS0=      1 NMatT0=    0 NMatD0=    1 NMtDS0=    0 NMtDT0=    0
 Petite list used in FoFCou.
 Keep R1 ints in memory in canonical form, NReq=3524626.
 Requested convergence on RMS density matrix=1.00D-08 within 128 cycles.
 Requested convergence on MAX density matrix=1.00D-06.
 Requested convergence on             energy=1.00D-06.
 No special actions if energy rises.
 Integral accuracy reduced to 1.0D-05 until final iterations.
 Initial convergence to 1.0D-05 achieved.  Increase integral accuracy.
 SCF Done:  E(RwB97X) =  -40.4943514040     A.U. after   11 cycles
            NFock= 11  Conv=0.20D-08     -V/T= 2.0145

 **********************************************************************

            Population analysis using the SCF density.

 **********************************************************************

 Orbital symmetries:
       Occupied  (A) (A) (A) (A) (A)
       Virtual   (A) (A) (A) (A) (A) (A) (A) (A) (A) (A) (A) (A)
                 (A) (A) (A) (A) (A) (A)
 The electronic state is 1-A.
 Alpha  occ. eigenvalues --  -10.26184  -0.80962  -0.49904  -0.49580  -0.47450
 Alpha virt. eigenvalues --    0.20667   0.25235   0.27161   0.27510   0.64025
 Alpha virt. eigenvalues --    0.64540   0.66296   0.96192   1.00891   1.01450
 Alpha virt. eigenvalues --    1.03807   1.19867   1.76100   1.76744   2.27215
 Alpha virt. eigenvalues --    2.33129   2.34744   4.28740
          Condensed to atoms (all electrons):
               1          2          3          4          5
     1  C    5.130436   0.383042   0.383036   0.373333   0.383238
     2  H    0.383042   0.520862  -0.022376  -0.026309  -0.025459
     3  H    0.383036  -0.022376   0.517699  -0.024689  -0.022952
     4  H    0.373333  -0.026309  -0.024689   0.552676  -0.019508
     5  H    0.383238  -0.025459  -0.022952  -0.019508   0.515614
 Mulliken charges:
               1
     1  C   -0.653086
     2  H    0.170240
     3  H    0.169282
     4  H    0.144497
     5  H    0.169067
 Sum of Mulliken charges =  -0.00000
 Mulliken charges with hydrogens summed into heavy atoms:
               1
     1  C   -0.000000
 Electronic spatial extent (au):  <R**2>=             36.6073
 Charge=             -0.0000 electrons
 Dipole moment (field-independent basis, Debye):
    X=             -0.0216    Y=             -0.0027    Z=              0.0430  Tot=              0.0482
 Quadrupole moment (field-independent basis, Debye-Ang):
   XX=             -8.2720   YY=             -8.2701   ZZ=             -8.4513
   XY=              0.0462   XZ=              0.0944   YZ=             -0.0272
 Traceless Quadrupole moment (field-independent basis, Debye-Ang):
   XX=              0.0592   YY=              0.0610   ZZ=             -0.1202
   XY=              0.0462   XZ=              0.0944   YZ=             -0.0272
 Octapole moment (field-independent basis, Debye-Ang**2):
  XXX=              0.1000  YYY=              0.8358  ZZZ=              0.4508  XYY=             -0.1015
  XXY=             -0.3468  XXZ=             -0.6830  XZZ=             -0.2207  YZZ=             -0.4621
  YYZ=              0.4365  XYZ=             -0.0304
 Hexadecapole moment (field-independent basis, Debye-Ang**3):
 XXXX=            -16.1971 YYYY=            -15.1993 ZZZZ=            -15.7013 XXXY=              0.0007
 XXXZ=              0.0610 YYYX=              0.0853 YYYZ=              0.0646 ZZZX=              0.2907
 ZZZY=             -0.4426 XXYY=             -5.6985 XXZZ=             -5.1652 YYZZ=             -5.1672
 XXYZ=              0.2763 YYXZ=              0.0595 ZZXY=              0.1148
 N-N= 1.305112966413D+01 E-N=-1.190007667327D+02  KE= 3.991561156996D+01
 1\1\GINC-NODE68\SP\RwB97X\6-31G(d)\C1H4\YANZ\22-Sep-2023\0\\# 6-31g(d)
  wb97x\\tmpdir/M1_ref_3.gjf\\0,1\C,0,8.007186,28.211016,36.753941\H,0,
 7.680165,27.902771,35.754467\H,0,7.16805807,28.60905847,37.35313619\H,
 0,8.37617572,27.22146116,37.28807635\H,0,8.82636725,28.95082532,36.659
 97263\\Version=ES64L-G16RevA.03\State=1-A\HF=-40.4943514\RMSD=1.992e-0
 9\Dipole=-0.0109715,0.0052158,-0.0145457\Quadrupole=-0.0296893,0.03609
 96,-0.0064103,0.0591529,-0.0871776,0.016961\PG=C01 [X(C1H4)]\\@


 IN-LAWS ARE LIKE SEEDS. YOU DON'T NEED THEM
 BUT THEY COME WITH THE TOMATO.
 Job cpu time:       0 days  0 hours  0 minutes  8.2 seconds.
 Elapsed time:       0 days  0 hours  0 minutes  2.3 seconds.
 File lengths (MBytes):  RWF=      6 Int=      0 D2E=      0 Chk=      1 Scr=      1
 Normal termination of Gaussian 16 at Fri Sep 22 16:29:19 2023.
