 Entering Gaussian System, Link 0=g16
 Initial command:
 /share/apps/gaussian/g16/l1.exe "/tmp/55568.mgr/Gau-357210.inp" -scrdir="/tmp/55568.mgr/"
 Entering Link 1 = /share/apps/gaussian/g16/l1.exe PID=    357211.
  
 Copyright (c) 1988,1990,1992,1993,1995,1998,2003,2009,2016,
            Gaussian, Inc.  All Rights Reserved.
  
 This is part of the Gaussian(R) 16 program.  It is based on
 the Gaussian(R) 09 system (copyright 2009, Gaussian, Inc.),
 the Gaussian(R) 03 system (copyright 2003, Gaussian, Inc.),
 the Gaussian(R) 98 system (copyright 1998, Gaussian, Inc.),
 the Gaussian(R) 94 system (copyright 1995, Gaussian, Inc.),
 the Gaussian 92(TM) system (copyright 1992, Gaussian, Inc.),
 the Gaussian 90(TM) system (copyright 1990, Gaussian, Inc.),
 the Gaussian 88(TM) system (copyright 1988, Gaussian, Inc.),
 the Gaussian 86(TM) system (copyright 1986, Carnegie Mellon
 University), and the Gaussian 82(TM) system (copyright 1983,
 Carnegie Mellon University). Gaussian is a federally registered
 trademark of Gaussian, Inc.
  
 This software contains proprietary and confidential information,
 including trade secrets, belonging to Gaussian, Inc.
  
 This software is provided under written license and may be
 used, copied, transmitted, or stored only in accord with that
 written license.
  
 The following legend is applicable only to US Government
 contracts under FAR:
  
                    RESTRICTED RIGHTS LEGEND
  
 Use, reproduction and disclosure by the US Government is
 subject to restrictions as set forth in subparagraphs (a)
 and (c) of the Commercial Computer Software - Restricted
 Rights clause in FAR 52.227-19.
  
 Gaussian, Inc.
 340 Quinnipiac St., Bldg. 40, Wallingford CT 06492
  
  
 ---------------------------------------------------------------
 Warning -- This program may not be used in any manner that
 competes with the business of Gaussian, Inc. or will provide
 assistance to any competitor of Gaussian, Inc.  The licensee
 of this program is prohibited from giving any competitor of
 Gaussian, Inc. access to this program.  By using this program,
 the user acknowledges that Gaussian, Inc. is engaged in the
 business of creating and licensing software in the field of
 computational chemistry and represents and warrants to the
 licensee that it is not a competitor of Gaussian, Inc. and that
 it will not use this program in any manner prohibited above.
 ---------------------------------------------------------------
  

 Cite this work as:
 Gaussian 16, Revision A.03,
 M. J. Frisch, G. W. Trucks, H. B. Schlegel, G. E. Scuseria, 
 M. A. Robb, J. R. Cheeseman, G. Scalmani, V. Barone, 
 G. A. Petersson, H. Nakatsuji, X. Li, M. Caricato, A. V. Marenich, 
 J. Bloino, B. G. Janesko, R. Gomperts, B. Mennucci, H. P. Hratchian, 
 J. V. Ortiz, A. F. Izmaylov, J. L. Sonnenberg, D. Williams-Young, 
 F. Ding, F. Lipparini, F. Egidi, J. Goings, B. Peng, A. Petrone, 
 T. Henderson, D. Ranasinghe, V. G. Zakrzewski, J. Gao, N. Rega, 
 G. Zheng, W. Liang, M. Hada, M. Ehara, K. Toyota, R. Fukuda, 
 J. Hasegawa, M. Ishida, T. Nakajima, Y. Honda, O. Kitao, H. Nakai, 
 T. Vreven, K. Throssell, J. A. Montgomery, Jr., J. E. Peralta, 
 F. Ogliaro, M. J. Bearpark, J. J. Heyd, E. N. Brothers, K. N. Kudin, 
 V. N. Staroverov, T. A. Keith, R. Kobayashi, J. Normand, 
 K. Raghavachari, A. P. Rendell, J. C. Burant, S. S. Iyengar, 
 J. Tomasi, M. Cossi, J. M. Millam, M. Klene, C. Adamo, R. Cammi, 
 J. W. Ochterski, R. L. Martin, K. Morokuma, O. Farkas, 
 J. B. Foresman, and D. J. Fox, Gaussian, Inc., Wallingford CT, 2016.
 
 ******************************************
 Gaussian 16:  ES64L-G16RevA.03 25-Dec-2016
                22-Sep-2023 
 ******************************************
 %nprocshared=2
 Will use up to    2 processors via shared memory.
 %mem=2GB
 ----------------
 # 6-31g(d) wb97x
 ----------------
 1/38=1,172=1/1;
 2/12=2,17=6,18=5,40=1/2;
 3/5=1,6=6,7=1,11=2,25=1,30=1,74=-57/1,2,3;
 4//1;
 5/5=2,38=5/2;
 6/7=2,8=2,9=2,10=2,28=1/1;
 99/5=1,9=1/99;
 -----------------------
 tmpdir/M2_conf_1_99.gjf
 -----------------------
 Symbolic Z-matrix:
 Charge =  0 Multiplicity = 1
 C                     0.        0.        0. 
 C                     1.5316    0.        0. 
 H                    -0.44413   0.       -1.01127 
 H                    -0.36705  -0.87494   0.54821 
 H                    -0.37127   0.88649   0.52908 
 H                     1.92882   0.1059    1.01436 
 H                     1.92609   0.83618  -0.59468 
 H                     1.92426  -0.93985  -0.40515 
 
                          Input orientation:                          
 ---------------------------------------------------------------------
 Center     Atomic      Atomic             Coordinates (Angstroms)
 Number     Number       Type             X           Y           Z
 ---------------------------------------------------------------------
      1          6           0        0.000000    0.000000    0.000000
      2          6           0        1.531600    0.000000    0.000000
      3          1           0       -0.444130    0.000000   -1.011270
      4          1           0       -0.367050   -0.874940    0.548210
      5          1           0       -0.371270    0.886490    0.529080
      6          1           0        1.928820    0.105900    1.014360
      7          1           0        1.926090    0.836180   -0.594680
      8          1           0        1.924260   -0.939850   -0.405150
 ---------------------------------------------------------------------
                    Distance matrix (angstroms):
                    1          2          3          4          5
     1  C    0.000000
     2  C    1.531600   0.000000
     3  H    1.104499   2.219499   0.000000
     4  H    1.095801   2.161233   1.789815   0.000000
     5  H    1.097101   2.164880   1.778722   1.761539   0.000000
     6  H    2.181854   1.094497   3.121744   2.539756   2.476940
     7  H    2.182353   1.099301   2.547683   3.081010   2.557974
     8  H    2.179505   1.096196   2.619155   2.482581   3.078597
                    6          7          8
     6  H    0.000000
     7  H    1.767010   0.000000
     8  H    1.763129   1.786115   0.000000
 Stoichiometry    C2H6
 Framework group  C1[X(C2H6)]
 Deg. of freedom    18
 Full point group                 C1      NOp   1
 Largest Abelian subgroup         C1      NOp   1
 Largest concise Abelian subgroup C1      NOp   1
                         Standard orientation:                         
 ---------------------------------------------------------------------
 Center     Atomic      Atomic             Coordinates (Angstroms)
 Number     Number       Type             X           Y           Z
 ---------------------------------------------------------------------
      1          6           0       -0.765912    0.001284   -0.003231
      2          6           0        0.765685    0.004361   -0.003881
      3          1           0       -1.211841    0.753669   -0.677754
      4          1           0       -1.131089   -0.991559   -0.289043
      5          1           0       -1.137148    0.197894    1.010258
      6          1           0        1.164601   -0.679765    0.751607
      7          1           0        1.158259    1.006014    0.222043
      8          1           0        1.158585   -0.320121   -0.974441
 ---------------------------------------------------------------------
 Rotational constants (GHZ):          79.6630371          19.9194195          19.8880764
 Standard basis: 6-31G(d) (6D, 7F)
 There are    42 symmetry adapted cartesian basis functions of A   symmetry.
 There are    42 symmetry adapted basis functions of A   symmetry.
    42 basis functions,    80 primitive gaussians,    42 cartesian basis functions
     9 alpha electrons        9 beta electrons
       nuclear repulsion energy        42.0775575543 Hartrees.
 NAtoms=    8 NActive=    8 NUniq=    8 SFac= 1.00D+00 NAtFMM=   60 NAOKFM=F Big=F
 Integral buffers will be    131072 words long.
 Raffenetti 2 integral format.
 Two-electron integral symmetry is turned on.
 One-electron integrals computed using PRISM.
 NBasis=    42 RedAO= T EigKep=  8.46D-03  NBF=    42
 NBsUse=    42 1.00D-06 EigRej= -1.00D+00 NBFU=    42
 ExpMin= 1.61D-01 ExpMax= 3.05D+03 ExpMxC= 4.57D+02 IAcc=3 IRadAn=         5 AccDes= 0.00D+00
 Harris functional with IExCor= 4538 and IRadAn=       5 diagonalized for initial guess.
 HarFok:  IExCor= 4538 AccDes= 0.00D+00 IRadAn=         5 IDoV= 1 UseB2=F ITyADJ=14
 ICtDFT=  3500011 ScaDFX=  1.000000  1.000000  1.000000  1.000000
 FoFCou: FMM=F IPFlag=           0 FMFlag=      100000 FMFlg1=           0
         NFxFlg=           0 DoJE=T BraDBF=F KetDBF=T FulRan=T
         wScrn=  0.000000 ICntrl=       500 IOpCl=  0 I1Cent=   200000004 NGrid=           0
         NMat0=    1 NMatS0=      1 NMatT0=    0 NMatD0=    1 NMtDS0=    0 NMtDT0=    0
 Petite list used in FoFCou.
 Keep R1 ints in memory in canonical form, NReq=2543288.
 Requested convergence on RMS density matrix=1.00D-08 within 128 cycles.
 Requested convergence on MAX density matrix=1.00D-06.
 Requested convergence on             energy=1.00D-06.
 No special actions if energy rises.
 Integral accuracy reduced to 1.0D-05 until final iterations.
 Initial convergence to 1.0D-05 achieved.  Increase integral accuracy.
 SCF Done:  E(RwB97X) =  -79.8009711060     A.U. after   12 cycles
            NFock= 12  Conv=0.19D-08     -V/T= 2.0110

 **********************************************************************

            Population analysis using the SCF density.

 **********************************************************************

 Orbital symmetries:
       Occupied  (A) (A) (A) (A) (A) (A) (A) (A) (A)
       Virtual   (A) (A) (A) (A) (A) (A) (A) (A) (A) (A) (A) (A)
                 (A) (A) (A) (A) (A) (A) (A) (A) (A) (A) (A) (A)
                 (A) (A) (A) (A) (A) (A) (A) (A) (A)
 The electronic state is 1-A.
 Alpha  occ. eigenvalues --  -10.25617 -10.25542  -0.87801  -0.73387  -0.54183
 Alpha  occ. eigenvalues --   -0.54000  -0.46603  -0.44167  -0.44037
 Alpha virt. eigenvalues --    0.19964   0.25377   0.25925   0.26162   0.28847
 Alpha virt. eigenvalues --    0.29132   0.33818   0.61883   0.64706   0.65171
 Alpha virt. eigenvalues --    0.73956   0.75234   0.78636   1.00035   1.00136
 Alpha virt. eigenvalues --    1.02417   1.03673   1.04067   1.09879   1.17361
 Alpha virt. eigenvalues --    1.54880   1.61853   1.63156   2.04095   2.07924
 Alpha virt. eigenvalues --    2.10280   2.36784   2.38550   2.43203   2.45170
 Alpha virt. eigenvalues --    2.70057   4.27126   4.49218
          Condensed to atoms (all electrons):
               1          2          3          4          5          6
     1  C    5.049878   0.354605   0.388081   0.388753   0.388475  -0.033045
     2  C    0.354605   5.049837  -0.030576  -0.036055  -0.035662   0.389251
     3  H    0.388081  -0.030576   0.543963  -0.027149  -0.028548   0.003687
     4  H    0.388753  -0.036055  -0.027149   0.550512  -0.029420  -0.002534
     5  H    0.388475  -0.035662  -0.028548  -0.029420   0.552425  -0.004286
     6  H   -0.033045   0.389251   0.003687  -0.002534  -0.004286   0.548707
     7  H   -0.034243   0.388193  -0.003609   0.004125  -0.002513  -0.029086
     8  H   -0.034492   0.388853  -0.002251  -0.004172   0.004157  -0.029659
               7          8
     1  C   -0.034243  -0.034492
     2  C    0.388193   0.388853
     3  H   -0.003609  -0.002251
     4  H    0.004125  -0.004172
     5  H   -0.002513   0.004157
     6  H   -0.029086  -0.029659
     7  H    0.548495  -0.026852
     8  H   -0.026852   0.548124
 Mulliken charges:
               1
     1  C   -0.468012
     2  C   -0.468445
     3  H    0.156400
     4  H    0.155939
     5  H    0.155371
     6  H    0.156963
     7  H    0.155491
     8  H    0.156292
 Sum of Mulliken charges =  -0.00000
 Mulliken charges with hydrogens summed into heavy atoms:
               1
     1  C   -0.000301
     2  C    0.000301
 Electronic spatial extent (au):  <R**2>=            109.6697
 Charge=             -0.0000 electrons
 Dipole moment (field-independent basis, Debye):
    X=              0.0037    Y=             -0.0228    Z=              0.0235  Tot=              0.0330
 Quadrupole moment (field-independent basis, Debye-Ang):
   XX=            -15.2775   YY=            -14.6636   ZZ=            -14.7169
   XY=             -0.0687   XZ=              0.0493   YZ=             -0.0029
 Traceless Quadrupole moment (field-independent basis, Debye-Ang):
   XX=             -0.3915   YY=              0.2224   ZZ=              0.1691
   XY=             -0.0687   XZ=              0.0493   YZ=             -0.0029
 Octapole moment (field-independent basis, Debye-Ang**2):
  XXX=              0.0286  YYY=              0.0449  ZZZ=              0.1678  XYY=             -0.0120
  XXY=              0.0553  XXZ=             -0.0231  XZZ=              0.0263  YZZ=             -0.1324
  YYZ=             -0.0981  XYZ=              0.1037
 Hexadecapole moment (field-independent basis, Debye-Ang**3):
 XXXX=            -92.9237 YYYY=            -28.5567 ZZZZ=            -28.4908 XXXY=             -0.3088
 XXXZ=              0.2285 YYYX=              0.9033 YYYZ=              0.0187 ZZZX=             -0.9156
 ZZZY=              0.0096 XXYY=            -18.9853 XXZZ=            -19.0382 YYZZ=             -9.5481
 XXYZ=             -0.1100 YYXZ=              0.9704 ZZXY=             -0.9824
 N-N= 4.207755755430D+01 E-N=-2.678855128668D+02  KE= 7.893175559586D+01
 1\1\GINC-NODE67\SP\RwB97X\6-31G(d)\C2H6\YANZ\22-Sep-2023\0\\# 6-31g(d)
  wb97x\\tmpdir/M2_conf_1_99.gjf\\0,1\C,0,0.,0.,0.\C,0,1.5316,0.,0.\H,0
 ,-0.44413,0.,-1.01127\H,0,-0.36705,-0.87494,0.54821\H,0,-0.37127,0.886
 49,0.52908\H,0,1.92882,0.1059,1.01436\H,0,1.92609,0.83618,-0.59468\H,0
 ,1.92426,-0.93985,-0.40515\\Version=ES64L-G16RevA.03\State=1-A\HF=-79.
 8009711\RMSD=1.855e-09\Dipole=0.0014441,0.0008914,0.0128676\Quadrupole
 =-0.2913028,0.1412087,0.1500941,-0.0063248,0.0616775,-0.0194988\PG=C01
  [X(C2H6)]\\@


 ADVERTISING--  HE WHO HAS SOMETHING TO SELL AND GOES AND WHISPERS
                IN A WELL, IS NOT SO APT TO GET THE DOLLARS AS HE
                WHO CLIMBS A TREE AND HOLLERS.

                   -- FROM THE BACK OF A SUGAR PACKET
 Job cpu time:       0 days  0 hours  0 minutes 10.9 seconds.
 Elapsed time:       0 days  0 hours  0 minutes  5.4 seconds.
 File lengths (MBytes):  RWF=      6 Int=      0 D2E=      0 Chk=      1 Scr=      1
 Normal termination of Gaussian 16 at Fri Sep 22 16:32:05 2023.
