 Entering Gaussian System, Link 0=g16
 Initial command:
 /share/apps/gaussian/g16/l1.exe "/tmp/55568.mgr/Gau-357671.inp" -scrdir="/tmp/55568.mgr/"
 Entering Link 1 = /share/apps/gaussian/g16/l1.exe PID=    357672.
  
 Copyright (c) 1988,1990,1992,1993,1995,1998,2003,2009,2016,
            Gaussian, Inc.  All Rights Reserved.
  
 This is part of the Gaussian(R) 16 program.  It is based on
 the Gaussian(R) 09 system (copyright 2009, Gaussian, Inc.),
 the Gaussian(R) 03 system (copyright 2003, Gaussian, Inc.),
 the Gaussian(R) 98 system (copyright 1998, Gaussian, Inc.),
 the Gaussian(R) 94 system (copyright 1995, Gaussian, Inc.),
 the Gaussian 92(TM) system (copyright 1992, Gaussian, Inc.),
 the Gaussian 90(TM) system (copyright 1990, Gaussian, Inc.),
 the Gaussian 88(TM) system (copyright 1988, Gaussian, Inc.),
 the Gaussian 86(TM) system (copyright 1986, Carnegie Mellon
 University), and the Gaussian 82(TM) system (copyright 1983,
 Carnegie Mellon University). Gaussian is a federally registered
 trademark of Gaussian, Inc.
  
 This software contains proprietary and confidential information,
 including trade secrets, belonging to Gaussian, Inc.
  
 This software is provided under written license and may be
 used, copied, transmitted, or stored only in accord with that
 written license.
  
 The following legend is applicable only to US Government
 contracts under FAR:
  
                    RESTRICTED RIGHTS LEGEND
  
 Use, reproduction and disclosure by the US Government is
 subject to restrictions as set forth in subparagraphs (a)
 and (c) of the Commercial Computer Software - Restricted
 Rights clause in FAR 52.227-19.
  
 Gaussian, Inc.
 340 Quinnipiac St., Bldg. 40, Wallingford CT 06492
  
  
 ---------------------------------------------------------------
 Warning -- This program may not be used in any manner that
 competes with the business of Gaussian, Inc. or will provide
 assistance to any competitor of Gaussian, Inc.  The licensee
 of this program is prohibited from giving any competitor of
 Gaussian, Inc. access to this program.  By using this program,
 the user acknowledges that Gaussian, Inc. is engaged in the
 business of creating and licensing software in the field of
 computational chemistry and represents and warrants to the
 licensee that it is not a competitor of Gaussian, Inc. and that
 it will not use this program in any manner prohibited above.
 ---------------------------------------------------------------
  

 Cite this work as:
 Gaussian 16, Revision A.03,
 M. J. Frisch, G. W. Trucks, H. B. Schlegel, G. E. Scuseria, 
 M. A. Robb, J. R. Cheeseman, G. Scalmani, V. Barone, 
 G. A. Petersson, H. Nakatsuji, X. Li, M. Caricato, A. V. Marenich, 
 J. Bloino, B. G. Janesko, R. Gomperts, B. Mennucci, H. P. Hratchian, 
 J. V. Ortiz, A. F. Izmaylov, J. L. Sonnenberg, D. Williams-Young, 
 F. Ding, F. Lipparini, F. Egidi, J. Goings, B. Peng, A. Petrone, 
 T. Henderson, D. Ranasinghe, V. G. Zakrzewski, J. Gao, N. Rega, 
 G. Zheng, W. Liang, M. Hada, M. Ehara, K. Toyota, R. Fukuda, 
 J. Hasegawa, M. Ishida, T. Nakajima, Y. Honda, O. Kitao, H. Nakai, 
 T. Vreven, K. Throssell, J. A. Montgomery, Jr., J. E. Peralta, 
 F. Ogliaro, M. J. Bearpark, J. J. Heyd, E. N. Brothers, K. N. Kudin, 
 V. N. Staroverov, T. A. Keith, R. Kobayashi, J. Normand, 
 K. Raghavachari, A. P. Rendell, J. C. Burant, S. S. Iyengar, 
 J. Tomasi, M. Cossi, J. M. Millam, M. Klene, C. Adamo, R. Cammi, 
 J. W. Ochterski, R. L. Martin, K. Morokuma, O. Farkas, 
 J. B. Foresman, and D. J. Fox, Gaussian, Inc., Wallingford CT, 2016.
 
 ******************************************
 Gaussian 16:  ES64L-G16RevA.03 25-Dec-2016
                22-Sep-2023 
 ******************************************
 %nprocshared=2
 Will use up to    2 processors via shared memory.
 %mem=2GB
 ----------------
 # 6-31g(d) wb97x
 ----------------
 1/38=1,172=1/1;
 2/12=2,17=6,18=5,40=1/2;
 3/5=1,6=6,7=1,11=2,25=1,30=1,74=-57/1,2,3;
 4//1;
 5/5=2,38=5/2;
 6/7=2,8=2,9=2,10=2,28=1/1;
 99/5=1,9=1/99;
 ------------------------
 tmpdir/M2_conf_1_104.gjf
 ------------------------
 Symbolic Z-matrix:
 Charge =  0 Multiplicity = 1
 C                     0.        0.        0. 
 C                     1.5258    0.        0. 
 H                     1.879     0.        1.03869 
 H                    -0.33049  -0.06773  -1.12668 
 H                    -0.43233  -0.80438   0.628 
 H                    -0.3507    0.97135   0.397 
 H                     1.97013   0.85856  -0.53524 
 H                     1.88021  -0.93512  -0.44803 
 
                          Input orientation:                          
 ---------------------------------------------------------------------
 Center     Atomic      Atomic             Coordinates (Angstroms)
 Number     Number       Type             X           Y           Z
 ---------------------------------------------------------------------
      1          6           0        0.000000    0.000000    0.000000
      2          6           0        1.525800    0.000000    0.000000
      3          1           0        1.879000    0.000000    1.038690
      4          1           0       -0.330490   -0.067730   -1.126680
      5          1           0       -0.432330   -0.804380    0.628000
      6          1           0       -0.350700    0.971350    0.397000
      7          1           0        1.970130    0.858560   -0.535240
      8          1           0        1.880210   -0.935120   -0.448030
 ---------------------------------------------------------------------
                    Distance matrix (angstroms):
                    1          2          3          4          5
     1  C    0.000000
     2  C    1.525800   0.000000
     3  H    2.146979   1.097099   0.000000
     4  H    1.176103   2.172512   3.094392   0.000000
     5  H    1.108296   2.208095   2.481520   1.905761   0.000000
     6  H    1.106400   2.149973   2.515323   1.844369   1.792552
     7  H    2.214728   1.105005   1.795184   2.549641   3.144886
     8  H    2.147177   1.095804   1.756356   2.469843   2.553972
                    6          7          8
     6  H    0.000000
     7  H    2.503606   0.000000
     8  H    3.053795   1.798049   0.000000
 Stoichiometry    C2H6
 Framework group  C1[X(C2H6)]
 Deg. of freedom    18
 Full point group                 C1      NOp   1
 Largest Abelian subgroup         C1      NOp   1
 Largest concise Abelian subgroup C1      NOp   1
                         Standard orientation:                         
 ---------------------------------------------------------------------
 Center     Atomic      Atomic             Coordinates (Angstroms)
 Number     Number       Type             X           Y           Z
 ---------------------------------------------------------------------
      1          6           0        0.765000    0.007435   -0.002341
      2          6           0       -0.760767   -0.001704    0.001855
      3          1           0       -1.118712    0.963457    0.381284
      4          1           0        1.100318   -1.015126   -0.476841
      5          1           0        1.190632    0.887915   -0.523793
      6          1           0        1.118483    0.025339    1.045920
      7          1           0       -1.198565   -0.815614    0.607594
      8          1           0       -1.117554   -0.080352   -1.031249
 ---------------------------------------------------------------------
 Rotational constants (GHZ):          76.0494628          20.1795731          19.9815911
 Standard basis: 6-31G(d) (6D, 7F)
 There are    42 symmetry adapted cartesian basis functions of A   symmetry.
 There are    42 symmetry adapted basis functions of A   symmetry.
    42 basis functions,    80 primitive gaussians,    42 cartesian basis functions
     9 alpha electrons        9 beta electrons
       nuclear repulsion energy        41.8786568947 Hartrees.
 NAtoms=    8 NActive=    8 NUniq=    8 SFac= 1.00D+00 NAtFMM=   60 NAOKFM=F Big=F
 Integral buffers will be    131072 words long.
 Raffenetti 2 integral format.
 Two-electron integral symmetry is turned on.
 One-electron integrals computed using PRISM.
 NBasis=    42 RedAO= T EigKep=  8.31D-03  NBF=    42
 NBsUse=    42 1.00D-06 EigRej= -1.00D+00 NBFU=    42
 ExpMin= 1.61D-01 ExpMax= 3.05D+03 ExpMxC= 4.57D+02 IAcc=3 IRadAn=         5 AccDes= 0.00D+00
 Harris functional with IExCor= 4538 and IRadAn=       5 diagonalized for initial guess.
 HarFok:  IExCor= 4538 AccDes= 0.00D+00 IRadAn=         5 IDoV= 1 UseB2=F ITyADJ=14
 ICtDFT=  3500011 ScaDFX=  1.000000  1.000000  1.000000  1.000000
 FoFCou: FMM=F IPFlag=           0 FMFlag=      100000 FMFlg1=           0
         NFxFlg=           0 DoJE=T BraDBF=F KetDBF=T FulRan=T
         wScrn=  0.000000 ICntrl=       500 IOpCl=  0 I1Cent=   200000004 NGrid=           0
         NMat0=    1 NMatS0=      1 NMatT0=    0 NMatD0=    1 NMtDS0=    0 NMtDT0=    0
 Petite list used in FoFCou.
 Keep R1 ints in memory in canonical form, NReq=2543288.
 Requested convergence on RMS density matrix=1.00D-08 within 128 cycles.
 Requested convergence on MAX density matrix=1.00D-06.
 Requested convergence on             energy=1.00D-06.
 No special actions if energy rises.
 Integral accuracy reduced to 1.0D-05 until final iterations.
 Initial convergence to 1.0D-05 achieved.  Increase integral accuracy.
 SCF Done:  E(RwB97X) =  -79.7953421468     A.U. after   12 cycles
            NFock= 12  Conv=0.22D-08     -V/T= 2.0123

 **********************************************************************

            Population analysis using the SCF density.

 **********************************************************************

 Orbital symmetries:
       Occupied  (A) (A) (A) (A) (A) (A) (A) (A) (A)
       Virtual   (A) (A) (A) (A) (A) (A) (A) (A) (A) (A) (A) (A)
                 (A) (A) (A) (A) (A) (A) (A) (A) (A) (A) (A) (A)
                 (A) (A) (A) (A) (A) (A) (A) (A) (A)
 The electronic state is 1-A.
 Alpha  occ. eigenvalues --  -10.26587 -10.25581  -0.87808  -0.72599  -0.54457
 Alpha  occ. eigenvalues --   -0.53868  -0.46489  -0.44110  -0.43171
 Alpha virt. eigenvalues --    0.19212   0.24900   0.25193   0.26076   0.27752
 Alpha virt. eigenvalues --    0.29058   0.33588   0.61548   0.65169   0.66656
 Alpha virt. eigenvalues --    0.72986   0.76116   0.78760   0.96676   0.99509
 Alpha virt. eigenvalues --    1.00248   1.03271   1.04001   1.08781   1.17319
 Alpha virt. eigenvalues --    1.54245   1.60629   1.63772   2.04238   2.07565
 Alpha virt. eigenvalues --    2.13717   2.32747   2.35727   2.40947   2.44651
 Alpha virt. eigenvalues --    2.70459   4.26458   4.48486
          Condensed to atoms (all electrons):
               1          2          3          4          5          6
     1  C    5.059037   0.350569  -0.038470   0.379738   0.387336   0.385771
     2  C    0.350569   5.059463   0.387119  -0.040887  -0.032048  -0.038733
     3  H   -0.038470   0.387119   0.556292   0.004552  -0.003445  -0.003100
     4  H    0.379738  -0.040887   0.004552   0.574380  -0.020803  -0.026300
     5  H    0.387336  -0.032048  -0.003445  -0.020803   0.538080  -0.029539
     6  H    0.385771  -0.038733  -0.003100  -0.026300  -0.029539   0.555974
     7  H   -0.030409   0.388882  -0.026396  -0.002476   0.003473  -0.003995
     8  H   -0.038010   0.389009  -0.030139  -0.004823  -0.002749   0.004632
               7          8
     1  C   -0.030409  -0.038010
     2  C    0.388882   0.389009
     3  H   -0.026396  -0.030139
     4  H   -0.002476  -0.004823
     5  H    0.003473  -0.002749
     6  H   -0.003995   0.004632
     7  H    0.539866  -0.026687
     8  H   -0.026687   0.552765
 Mulliken charges:
               1
     1  C   -0.455563
     2  C   -0.463373
     3  H    0.153587
     4  H    0.136620
     5  H    0.159695
     6  H    0.155290
     7  H    0.157742
     8  H    0.156002
 Sum of Mulliken charges =  -0.00000
 Mulliken charges with hydrogens summed into heavy atoms:
               1
     1  C   -0.003958
     2  C    0.003958
 Electronic spatial extent (au):  <R**2>=            109.8718
 Charge=             -0.0000 electrons
 Dipole moment (field-independent basis, Debye):
    X=             -0.0518    Y=              0.0612    Z=              0.0313  Tot=              0.0860
 Quadrupole moment (field-independent basis, Debye-Ang):
   XX=            -15.6481   YY=            -14.5706   ZZ=            -14.8037
   XY=              0.2328   XZ=             -0.0109   YZ=             -0.0892
 Traceless Quadrupole moment (field-independent basis, Debye-Ang):
   XX=             -0.6406   YY=              0.4368   ZZ=              0.2037
   XY=              0.2328   XZ=             -0.0109   YZ=             -0.0892
 Octapole moment (field-independent basis, Debye-Ang**2):
  XXX=             -0.5522  YYY=              0.2625  ZZZ=              0.1722  XYY=              0.0487
  XXY=              0.2223  XXZ=              0.1395  XZZ=             -0.1600  YZZ=             -0.0526
  YYZ=             -0.0885  XYZ=              0.0564
 Hexadecapole moment (field-independent basis, Debye-Ang**3):
 XXXX=            -93.2137 YYYY=            -29.6603 ZZZZ=            -28.8663 XXXY=              1.0477
 XXXZ=             -0.0987 YYYX=              0.0373 YYYZ=             -0.0494 ZZZX=              1.4504
 ZZZY=             -0.2091 XXYY=            -19.0320 XXZZ=            -19.2459 YYZZ=             -9.8517
 XXYZ=             -0.3685 YYXZ=             -1.3867 ZZXY=              0.4424
 N-N= 4.187865689471D+01 E-N=-2.674023423672D+02  KE= 7.882895168244D+01
 1\1\GINC-NODE67\SP\RwB97X\6-31G(d)\C2H6\YANZ\22-Sep-2023\0\\# 6-31g(d)
  wb97x\\tmpdir/M2_conf_1_104.gjf\\0,1\C,0,0.,0.,0.\C,0,1.5258,0.,0.\H,
 0,1.879,0.,1.03869\H,0,-0.33049,-0.06773,-1.12668\H,0,-0.43233,-0.8043
 8,0.628\H,0,-0.3507,0.97135,0.397\H,0,1.97013,0.85856,-0.53524\H,0,1.8
 8021,-0.93512,-0.44803\\Version=ES64L-G16RevA.03\State=1-A\HF=-79.7953
 421\RMSD=2.248e-09\Dipole=0.0202538,0.002588,0.0269861\Quadrupole=-0.4
 741067,0.2188006,0.2553061,0.0743747,-0.1620753,-0.1064268\PG=C01 [X(C
 2H6)]\\@


 I LOVE THOSE WHO LONG FOR THE IMPOSSIBLE.

                                 -- GOETHE
 Job cpu time:       0 days  0 hours  0 minutes  9.6 seconds.
 Elapsed time:       0 days  0 hours  0 minutes  4.8 seconds.
 File lengths (MBytes):  RWF=      6 Int=      0 D2E=      0 Chk=      1 Scr=      1
 Normal termination of Gaussian 16 at Fri Sep 22 16:32:20 2023.
