 Entering Gaussian System, Link 0=g16
 Initial command:
 /share/apps/gaussian/g16/l1.exe "/tmp/55568.mgr/Gau-359088.inp" -scrdir="/tmp/55568.mgr/"
 Entering Link 1 = /share/apps/gaussian/g16/l1.exe PID=    359090.
  
 Copyright (c) 1988,1990,1992,1993,1995,1998,2003,2009,2016,
            Gaussian, Inc.  All Rights Reserved.
  
 This is part of the Gaussian(R) 16 program.  It is based on
 the Gaussian(R) 09 system (copyright 2009, Gaussian, Inc.),
 the Gaussian(R) 03 system (copyright 2003, Gaussian, Inc.),
 the Gaussian(R) 98 system (copyright 1998, Gaussian, Inc.),
 the Gaussian(R) 94 system (copyright 1995, Gaussian, Inc.),
 the Gaussian 92(TM) system (copyright 1992, Gaussian, Inc.),
 the Gaussian 90(TM) system (copyright 1990, Gaussian, Inc.),
 the Gaussian 88(TM) system (copyright 1988, Gaussian, Inc.),
 the Gaussian 86(TM) system (copyright 1986, Carnegie Mellon
 University), and the Gaussian 82(TM) system (copyright 1983,
 Carnegie Mellon University). Gaussian is a federally registered
 trademark of Gaussian, Inc.
  
 This software contains proprietary and confidential information,
 including trade secrets, belonging to Gaussian, Inc.
  
 This software is provided under written license and may be
 used, copied, transmitted, or stored only in accord with that
 written license.
  
 The following legend is applicable only to US Government
 contracts under FAR:
  
                    RESTRICTED RIGHTS LEGEND
  
 Use, reproduction and disclosure by the US Government is
 subject to restrictions as set forth in subparagraphs (a)
 and (c) of the Commercial Computer Software - Restricted
 Rights clause in FAR 52.227-19.
  
 Gaussian, Inc.
 340 Quinnipiac St., Bldg. 40, Wallingford CT 06492
  
  
 ---------------------------------------------------------------
 Warning -- This program may not be used in any manner that
 competes with the business of Gaussian, Inc. or will provide
 assistance to any competitor of Gaussian, Inc.  The licensee
 of this program is prohibited from giving any competitor of
 Gaussian, Inc. access to this program.  By using this program,
 the user acknowledges that Gaussian, Inc. is engaged in the
 business of creating and licensing software in the field of
 computational chemistry and represents and warrants to the
 licensee that it is not a competitor of Gaussian, Inc. and that
 it will not use this program in any manner prohibited above.
 ---------------------------------------------------------------
  

 Cite this work as:
 Gaussian 16, Revision A.03,
 M. J. Frisch, G. W. Trucks, H. B. Schlegel, G. E. Scuseria, 
 M. A. Robb, J. R. Cheeseman, G. Scalmani, V. Barone, 
 G. A. Petersson, H. Nakatsuji, X. Li, M. Caricato, A. V. Marenich, 
 J. Bloino, B. G. Janesko, R. Gomperts, B. Mennucci, H. P. Hratchian, 
 J. V. Ortiz, A. F. Izmaylov, J. L. Sonnenberg, D. Williams-Young, 
 F. Ding, F. Lipparini, F. Egidi, J. Goings, B. Peng, A. Petrone, 
 T. Henderson, D. Ranasinghe, V. G. Zakrzewski, J. Gao, N. Rega, 
 G. Zheng, W. Liang, M. Hada, M. Ehara, K. Toyota, R. Fukuda, 
 J. Hasegawa, M. Ishida, T. Nakajima, Y. Honda, O. Kitao, H. Nakai, 
 T. Vreven, K. Throssell, J. A. Montgomery, Jr., J. E. Peralta, 
 F. Ogliaro, M. J. Bearpark, J. J. Heyd, E. N. Brothers, K. N. Kudin, 
 V. N. Staroverov, T. A. Keith, R. Kobayashi, J. Normand, 
 K. Raghavachari, A. P. Rendell, J. C. Burant, S. S. Iyengar, 
 J. Tomasi, M. Cossi, J. M. Millam, M. Klene, C. Adamo, R. Cammi, 
 J. W. Ochterski, R. L. Martin, K. Morokuma, O. Farkas, 
 J. B. Foresman, and D. J. Fox, Gaussian, Inc., Wallingford CT, 2016.
 
 ******************************************
 Gaussian 16:  ES64L-G16RevA.03 25-Dec-2016
                22-Sep-2023 
 ******************************************
 %nprocshared=2
 Will use up to    2 processors via shared memory.
 %mem=2GB
 ----------------
 # 6-31g(d) wb97x
 ----------------
 1/38=1,172=1/1;
 2/12=2,17=6,18=5,40=1/2;
 3/5=1,6=6,7=1,11=2,25=1,30=1,74=-57/1,2,3;
 4//1;
 5/5=2,38=5/2;
 6/7=2,8=2,9=2,10=2,28=1/1;
 99/5=1,9=1/99;
 ------------------------
 tmpdir/M2_conf_2_120.gjf
 ------------------------
 Symbolic Z-matrix:
 Charge =  0 Multiplicity = 1
 C                     0.        0.        0. 
 C                     1.5274    0.        0. 
 H                     1.91099   0.        1.02433 
 H                    -0.45732  -0.14155  -0.99958 
 H                    -0.37111  -0.78121   0.67337 
 H                    -0.38068   0.94825   0.4027 
 H                     1.93321   0.8824   -0.50699 
 H                     1.91978  -0.89059  -0.5006 
 
                          Input orientation:                          
 ---------------------------------------------------------------------
 Center     Atomic      Atomic             Coordinates (Angstroms)
 Number     Number       Type             X           Y           Z
 ---------------------------------------------------------------------
      1          6           0        0.000000    0.000000    0.000000
      2          6           0        1.527400    0.000000    0.000000
      3          1           0        1.910990    0.000000    1.024330
      4          1           0       -0.457320   -0.141550   -0.999580
      5          1           0       -0.371110   -0.781210    0.673370
      6          1           0       -0.380680    0.948250    0.402700
      7          1           0        1.933210    0.882400   -0.506990
      8          1           0        1.919780   -0.890590   -0.500600
 ---------------------------------------------------------------------
                    Distance matrix (angstroms):
                    1          2          3          4          5
     1  C    0.000000
     2  C    1.527400   0.000000
     3  H    2.168210   1.093798   0.000000
     4  H    1.108304   2.226726   3.118516   0.000000
     5  H    1.096102   2.160569   2.437507   1.793142   0.000000
     6  H    1.098300   2.168436   2.556825   1.777618   1.750539
     7  H    2.184713   1.095605   1.767502   2.646838   3.077457
     8  H    2.174697   1.094401   1.765967   2.541780   2.576499
                    6          7          8
     6  H    0.000000
     7  H    2.487159   0.000000
     8  H    3.080487   1.773052   0.000000
 Stoichiometry    C2H6
 Framework group  C1[X(C2H6)]
 Deg. of freedom    18
 Full point group                 C1      NOp   1
 Largest Abelian subgroup         C1      NOp   1
 Largest concise Abelian subgroup C1      NOp   1
                         Standard orientation:                         
 ---------------------------------------------------------------------
 Center     Atomic      Atomic             Coordinates (Angstroms)
 Number     Number       Type             X           Y           Z
 ---------------------------------------------------------------------
      1          6           0        0.762178   -0.005070   -0.002763
      2          6           0       -0.765219   -0.005152    0.000213
      3          1           0       -1.148740    1.017222    0.063905
      4          1           0        1.219155   -0.994038   -0.206359
      5          1           0        1.131810    0.715052   -0.741840
      6          1           0        1.144731    0.338621    0.967697
      7          1           0       -1.169343   -0.565428    0.850581
      8          1           0       -1.159366   -0.450101   -0.918689
 ---------------------------------------------------------------------
 Rotational constants (GHZ):          79.9437524          19.9792078          19.9231414
 Standard basis: 6-31G(d) (6D, 7F)
 There are    42 symmetry adapted cartesian basis functions of A   symmetry.
 There are    42 symmetry adapted basis functions of A   symmetry.
    42 basis functions,    80 primitive gaussians,    42 cartesian basis functions
     9 alpha electrons        9 beta electrons
       nuclear repulsion energy        42.1204647429 Hartrees.
 NAtoms=    8 NActive=    8 NUniq=    8 SFac= 1.00D+00 NAtFMM=   60 NAOKFM=F Big=F
 Integral buffers will be    131072 words long.
 Raffenetti 2 integral format.
 Two-electron integral symmetry is turned on.
 One-electron integrals computed using PRISM.
 NBasis=    42 RedAO= T EigKep=  8.41D-03  NBF=    42
 NBsUse=    42 1.00D-06 EigRej= -1.00D+00 NBFU=    42
 ExpMin= 1.61D-01 ExpMax= 3.05D+03 ExpMxC= 4.57D+02 IAcc=3 IRadAn=         5 AccDes= 0.00D+00
 Harris functional with IExCor= 4538 and IRadAn=       5 diagonalized for initial guess.
 HarFok:  IExCor= 4538 AccDes= 0.00D+00 IRadAn=         5 IDoV= 1 UseB2=F ITyADJ=14
 ICtDFT=  3500011 ScaDFX=  1.000000  1.000000  1.000000  1.000000
 FoFCou: FMM=F IPFlag=           0 FMFlag=      100000 FMFlg1=           0
         NFxFlg=           0 DoJE=T BraDBF=F KetDBF=T FulRan=T
         wScrn=  0.000000 ICntrl=       500 IOpCl=  0 I1Cent=   200000004 NGrid=           0
         NMat0=    1 NMatS0=      1 NMatT0=    0 NMatD0=    1 NMtDS0=    0 NMtDT0=    0
 Petite list used in FoFCou.
 Keep R1 ints in memory in canonical form, NReq=2543288.
 Requested convergence on RMS density matrix=1.00D-08 within 128 cycles.
 Requested convergence on MAX density matrix=1.00D-06.
 Requested convergence on             energy=1.00D-06.
 No special actions if energy rises.
 Integral accuracy reduced to 1.0D-05 until final iterations.
 Initial convergence to 1.0D-05 achieved.  Increase integral accuracy.
 SCF Done:  E(RwB97X) =  -79.8007646712     A.U. after   12 cycles
            NFock= 12  Conv=0.26D-08     -V/T= 2.0109

 **********************************************************************

            Population analysis using the SCF density.

 **********************************************************************

 Orbital symmetries:
       Occupied  (A) (A) (A) (A) (A) (A) (A) (A) (A)
       Virtual   (A) (A) (A) (A) (A) (A) (A) (A) (A) (A) (A) (A)
                 (A) (A) (A) (A) (A) (A) (A) (A) (A) (A) (A) (A)
                 (A) (A) (A) (A) (A) (A) (A) (A) (A)
 The electronic state is 1-A.
 Alpha  occ. eigenvalues --  -10.25631 -10.25476  -0.87868  -0.73418  -0.54176
 Alpha  occ. eigenvalues --   -0.54001  -0.46747  -0.44190  -0.43917
 Alpha virt. eigenvalues --    0.19998   0.25315   0.25731   0.25926   0.29080
 Alpha virt. eigenvalues --    0.29481   0.34024   0.61787   0.64837   0.64949
 Alpha virt. eigenvalues --    0.74096   0.75487   0.78885   0.99897   1.00001
 Alpha virt. eigenvalues --    1.02549   1.03814   1.04008   1.09922   1.17301
 Alpha virt. eigenvalues --    1.55071   1.61846   1.63057   2.04457   2.07699
 Alpha virt. eigenvalues --    2.10182   2.36030   2.38311   2.44497   2.45804
 Alpha virt. eigenvalues --    2.70222   4.27221   4.49283
          Condensed to atoms (all electrons):
               1          2          3          4          5          6
     1  C    5.052088   0.354495  -0.034154   0.387581   0.388935   0.388216
     2  C    0.354495   5.047276   0.389812  -0.030218  -0.036007  -0.035319
     3  H   -0.034154   0.389812   0.547995   0.003703  -0.004768  -0.002225
     4  H    0.387581  -0.030218   0.003703   0.544750  -0.026806  -0.028787
     5  H    0.388935  -0.036007  -0.004768  -0.026806   0.551572  -0.030827
     6  H    0.388216  -0.035319  -0.002225  -0.028787  -0.030827   0.554545
     7  H   -0.033656   0.389153  -0.028776  -0.001726   0.004126  -0.004618
     8  H   -0.034489   0.388926  -0.028692  -0.003993  -0.002262   0.004149
               7          8
     1  C   -0.033656  -0.034489
     2  C    0.389153   0.388926
     3  H   -0.028776  -0.028692
     4  H   -0.001726  -0.003993
     5  H    0.004126  -0.002262
     6  H   -0.004618   0.004149
     7  H    0.546934  -0.028112
     8  H   -0.028112   0.547519
 Mulliken charges:
               1
     1  C   -0.469015
     2  C   -0.468117
     3  H    0.157105
     4  H    0.155495
     5  H    0.156037
     6  H    0.154866
     7  H    0.156675
     8  H    0.156954
 Sum of Mulliken charges =  -0.00000
 Mulliken charges with hydrogens summed into heavy atoms:
               1
     1  C   -0.002616
     2  C    0.002616
 Electronic spatial extent (au):  <R**2>=            109.5385
 Charge=              0.0000 electrons
 Dipole moment (field-independent basis, Debye):
    X=             -0.0062    Y=              0.0360    Z=              0.0060  Tot=              0.0370
 Quadrupole moment (field-independent basis, Debye-Ang):
   XX=            -15.2410   YY=            -14.6491   ZZ=            -14.7500
   XY=             -0.0486   XZ=              0.0001   YZ=             -0.0044
 Traceless Quadrupole moment (field-independent basis, Debye-Ang):
   XX=             -0.3610   YY=              0.2309   ZZ=              0.1301
   XY=             -0.0486   XZ=              0.0001   YZ=             -0.0044
 Octapole moment (field-independent basis, Debye-Ang**2):
  XXX=             -0.0108  YYY=              0.2034  ZZZ=              0.2188  XYY=              0.0841
  XXY=             -0.1043  XXZ=              0.0245  XZZ=             -0.1407  YZZ=             -0.0671
  YYZ=             -0.2142  XYZ=              0.0249
 Hexadecapole moment (field-independent basis, Debye-Ang**3):
 XXXX=            -92.6713 YYYY=            -28.6212 ZZZZ=            -28.4678 XXXY=             -0.2434
 XXXZ=             -0.0306 YYYX=             -1.2461 YYYZ=             -0.0463 ZZZX=              0.5370
 ZZZY=              0.0160 XXYY=            -18.8631 XXZZ=            -19.0979 YYZZ=             -9.4964
 XXYZ=              0.0312 YYXZ=             -0.5347 ZZXY=              1.2076
 N-N= 4.212046474288D+01 E-N=-2.679756809828D+02  KE= 7.893916894677D+01
 1\1\GINC-NODE67\SP\RwB97X\6-31G(d)\C2H6\YANZ\22-Sep-2023\0\\# 6-31g(d)
  wb97x\\tmpdir/M2_conf_2_120.gjf\\0,1\C,0,0.,0.,0.\C,0,1.5274,0.,0.\H,
 0,1.91099,0.,1.02433\H,0,-0.45732,-0.14155,-0.99958\H,0,-0.37111,-0.78
 121,0.67337\H,0,-0.38068,0.94825,0.4027\H,0,1.93321,0.8824,-0.50699\H,
 0,1.91978,-0.89059,-0.5006\\Version=ES64L-G16RevA.03\State=1-A\HF=-79.
 8007647\RMSD=2.582e-09\Dipole=0.0024628,0.0014795,0.0142688\Quadrupole
 =-0.2683922,0.0973937,0.1709985,-0.0015452,0.0360481,-0.007945\PG=C01 
 [X(C2H6)]\\@


      LET US REMEMBER, PLEASE, THAT THE SEARCH FOR THE CONSTITUTION
      OF THE WORLD IS ONE OF THE GREATEST AND NOBLEST PROBLEMS PRESENTED 
      BY NATURE.

                                                  -- GALILEO
 Job cpu time:       0 days  0 hours  0 minutes 11.0 seconds.
 Elapsed time:       0 days  0 hours  0 minutes  5.5 seconds.
 File lengths (MBytes):  RWF=      6 Int=      0 D2E=      0 Chk=      1 Scr=      1
 Normal termination of Gaussian 16 at Fri Sep 22 16:33:15 2023.
