 Entering Gaussian System, Link 0=g16
 Initial command:
 /share/apps/gaussian/g16/l1.exe "/tmp/55568.mgr/Gau-357333.inp" -scrdir="/tmp/55568.mgr/"
 Entering Link 1 = /share/apps/gaussian/g16/l1.exe PID=    357334.
  
 Copyright (c) 1988,1990,1992,1993,1995,1998,2003,2009,2016,
            Gaussian, Inc.  All Rights Reserved.
  
 This is part of the Gaussian(R) 16 program.  It is based on
 the Gaussian(R) 09 system (copyright 2009, Gaussian, Inc.),
 the Gaussian(R) 03 system (copyright 2003, Gaussian, Inc.),
 the Gaussian(R) 98 system (copyright 1998, Gaussian, Inc.),
 the Gaussian(R) 94 system (copyright 1995, Gaussian, Inc.),
 the Gaussian 92(TM) system (copyright 1992, Gaussian, Inc.),
 the Gaussian 90(TM) system (copyright 1990, Gaussian, Inc.),
 the Gaussian 88(TM) system (copyright 1988, Gaussian, Inc.),
 the Gaussian 86(TM) system (copyright 1986, Carnegie Mellon
 University), and the Gaussian 82(TM) system (copyright 1983,
 Carnegie Mellon University). Gaussian is a federally registered
 trademark of Gaussian, Inc.
  
 This software contains proprietary and confidential information,
 including trade secrets, belonging to Gaussian, Inc.
  
 This software is provided under written license and may be
 used, copied, transmitted, or stored only in accord with that
 written license.
  
 The following legend is applicable only to US Government
 contracts under FAR:
  
                    RESTRICTED RIGHTS LEGEND
  
 Use, reproduction and disclosure by the US Government is
 subject to restrictions as set forth in subparagraphs (a)
 and (c) of the Commercial Computer Software - Restricted
 Rights clause in FAR 52.227-19.
  
 Gaussian, Inc.
 340 Quinnipiac St., Bldg. 40, Wallingford CT 06492
  
  
 ---------------------------------------------------------------
 Warning -- This program may not be used in any manner that
 competes with the business of Gaussian, Inc. or will provide
 assistance to any competitor of Gaussian, Inc.  The licensee
 of this program is prohibited from giving any competitor of
 Gaussian, Inc. access to this program.  By using this program,
 the user acknowledges that Gaussian, Inc. is engaged in the
 business of creating and licensing software in the field of
 computational chemistry and represents and warrants to the
 licensee that it is not a competitor of Gaussian, Inc. and that
 it will not use this program in any manner prohibited above.
 ---------------------------------------------------------------
  

 Cite this work as:
 Gaussian 16, Revision A.03,
 M. J. Frisch, G. W. Trucks, H. B. Schlegel, G. E. Scuseria, 
 M. A. Robb, J. R. Cheeseman, G. Scalmani, V. Barone, 
 G. A. Petersson, H. Nakatsuji, X. Li, M. Caricato, A. V. Marenich, 
 J. Bloino, B. G. Janesko, R. Gomperts, B. Mennucci, H. P. Hratchian, 
 J. V. Ortiz, A. F. Izmaylov, J. L. Sonnenberg, D. Williams-Young, 
 F. Ding, F. Lipparini, F. Egidi, J. Goings, B. Peng, A. Petrone, 
 T. Henderson, D. Ranasinghe, V. G. Zakrzewski, J. Gao, N. Rega, 
 G. Zheng, W. Liang, M. Hada, M. Ehara, K. Toyota, R. Fukuda, 
 J. Hasegawa, M. Ishida, T. Nakajima, Y. Honda, O. Kitao, H. Nakai, 
 T. Vreven, K. Throssell, J. A. Montgomery, Jr., J. E. Peralta, 
 F. Ogliaro, M. J. Bearpark, J. J. Heyd, E. N. Brothers, K. N. Kudin, 
 V. N. Staroverov, T. A. Keith, R. Kobayashi, J. Normand, 
 K. Raghavachari, A. P. Rendell, J. C. Burant, S. S. Iyengar, 
 J. Tomasi, M. Cossi, J. M. Millam, M. Klene, C. Adamo, R. Cammi, 
 J. W. Ochterski, R. L. Martin, K. Morokuma, O. Farkas, 
 J. B. Foresman, and D. J. Fox, Gaussian, Inc., Wallingford CT, 2016.
 
 ******************************************
 Gaussian 16:  ES64L-G16RevA.03 25-Dec-2016
                22-Sep-2023 
 ******************************************
 %nprocshared=2
 Will use up to    2 processors via shared memory.
 %mem=2GB
 ----------------
 # 6-31g(d) wb97x
 ----------------
 1/38=1,172=1/1;
 2/12=2,17=6,18=5,40=1/2;
 3/5=1,6=6,7=1,11=2,25=1,30=1,74=-57/1,2,3;
 4//1;
 5/5=2,38=5/2;
 6/7=2,8=2,9=2,10=2,28=1/1;
 99/5=1,9=1/99;
 -----------------------
 tmpdir/M2_conf_1_94.gjf
 -----------------------
 Symbolic Z-matrix:
 Charge =  0 Multiplicity = 1
 C                     0.        0.        0. 
 C                     1.5088    0.        0. 
 H                     1.878     0.        1.02886 
 H                    -0.46333   0.77841  -0.5394 
 O                    -0.5974   -0.90871   0.60489 
 H                     1.85607  -0.92905  -0.45997 
 H                     1.94566   0.85132  -0.52722 
 
                          Input orientation:                          
 ---------------------------------------------------------------------
 Center     Atomic      Atomic             Coordinates (Angstroms)
 Number     Number       Type             X           Y           Z
 ---------------------------------------------------------------------
      1          6           0        0.000000    0.000000    0.000000
      2          6           0        1.508800    0.000000    0.000000
      3          1           0        1.878000    0.000000    1.028860
      4          1           0       -0.463330    0.778410   -0.539400
      5          8           0       -0.597400   -0.908710    0.604890
      6          1           0        1.856070   -0.929050   -0.459970
      7          1           0        1.945660    0.851320   -0.527220
 ---------------------------------------------------------------------
                    Distance matrix (angstroms):
                    1          2          3          4          5
     1  C    0.000000
     2  C    1.508800   0.000000
     3  H    2.141363   1.093097   0.000000
     4  H    1.054300   2.187732   2.923557   0.000000
     5  O    1.244400   2.372282   2.670788   2.042975   0.000000
     6  H    2.125959   1.093299   1.755058   2.881206   2.674669
     7  H    2.188218   1.092499   1.775024   2.410124   3.293407
                    6          7
     6  H    0.000000
     7  H    1.783891   0.000000
 Stoichiometry    C2H4O
 Framework group  C1[X(C2H4O)]
 Deg. of freedom    15
 Full point group                 C1      NOp   1
 Largest Abelian subgroup         C1      NOp   1
 Largest concise Abelian subgroup C1      NOp   1
                         Standard orientation:                         
 ---------------------------------------------------------------------
 Center     Atomic      Atomic             Coordinates (Angstroms)
 Number     Number       Type             X           Y           Z
 ---------------------------------------------------------------------
      1          6           0        0.229682    0.459592   -0.003693
      2          6           0       -1.151190   -0.148400    0.000446
      3          1           0       -1.259896   -0.823522   -0.852346
      4          1           0        0.272176    1.512967    0.008329
      5          8           0        1.216325   -0.298733   -0.000268
      6          1           0       -1.259499   -0.758064    0.901491
      7          1           0       -1.954331    0.591330   -0.035852
 ---------------------------------------------------------------------
 Rotational constants (GHZ):          52.3235019          10.4164270           9.1768989
 Standard basis: 6-31G(d) (6D, 7F)
 There are    53 symmetry adapted cartesian basis functions of A   symmetry.
 There are    53 symmetry adapted basis functions of A   symmetry.
    53 basis functions,   100 primitive gaussians,    53 cartesian basis functions
    12 alpha electrons       12 beta electrons
       nuclear repulsion energy        69.3562310887 Hartrees.
 NAtoms=    7 NActive=    7 NUniq=    7 SFac= 1.00D+00 NAtFMM=   60 NAOKFM=F Big=F
 Integral buffers will be    131072 words long.
 Raffenetti 2 integral format.
 Two-electron integral symmetry is turned on.
 One-electron integrals computed using PRISM.
 NBasis=    53 RedAO= T EigKep=  6.31D-03  NBF=    53
 NBsUse=    53 1.00D-06 EigRej= -1.00D+00 NBFU=    53
 ExpMin= 1.61D-01 ExpMax= 5.48D+03 ExpMxC= 8.25D+02 IAcc=3 IRadAn=         5 AccDes= 0.00D+00
 Harris functional with IExCor= 4538 and IRadAn=       5 diagonalized for initial guess.
 HarFok:  IExCor= 4538 AccDes= 0.00D+00 IRadAn=         5 IDoV= 1 UseB2=F ITyADJ=14
 ICtDFT=  3500011 ScaDFX=  1.000000  1.000000  1.000000  1.000000
 FoFCou: FMM=F IPFlag=           0 FMFlag=      100000 FMFlg1=           0
         NFxFlg=           0 DoJE=T BraDBF=F KetDBF=T FulRan=T
         wScrn=  0.000000 ICntrl=       500 IOpCl=  0 I1Cent=   200000004 NGrid=           0
         NMat0=    1 NMatS0=      1 NMatT0=    0 NMatD0=    1 NMtDS0=    0 NMtDT0=    0
 Petite list used in FoFCou.
 Keep R1 ints in memory in canonical form, NReq=3800804.
 Requested convergence on RMS density matrix=1.00D-08 within 128 cycles.
 Requested convergence on MAX density matrix=1.00D-06.
 Requested convergence on             energy=1.00D-06.
 No special actions if energy rises.
 Integral accuracy reduced to 1.0D-05 until final iterations.
 Initial convergence to 1.0D-05 achieved.  Increase integral accuracy.
 SCF Done:  E(RwB97X) =  -153.779145696     A.U. after   14 cycles
            NFock= 14  Conv=0.56D-08     -V/T= 2.0093

 **********************************************************************

            Population analysis using the SCF density.

 **********************************************************************

 Orbital symmetries:
       Occupied  (A) (A) (A) (A) (A) (A) (A) (A) (A) (A) (A) (A)
       Virtual   (A) (A) (A) (A) (A) (A) (A) (A) (A) (A) (A) (A)
                 (A) (A) (A) (A) (A) (A) (A) (A) (A) (A) (A) (A)
                 (A) (A) (A) (A) (A) (A) (A) (A) (A) (A) (A) (A)
                 (A) (A) (A) (A) (A)
 The electronic state is 1-A.
 Alpha  occ. eigenvalues --  -19.21638 -10.36566 -10.27615  -1.15338  -0.87939
 Alpha  occ. eigenvalues --   -0.71739  -0.58779  -0.55076  -0.53594  -0.50199
 Alpha  occ. eigenvalues --   -0.45390  -0.35787
 Alpha virt. eigenvalues --    0.06154   0.21028   0.22449   0.27188   0.27374
 Alpha virt. eigenvalues --    0.33665   0.37413   0.63144   0.64114   0.68347
 Alpha virt. eigenvalues --    0.70786   0.75406   0.82468   0.88640   0.96314
 Alpha virt. eigenvalues --    0.97284   0.99291   1.05479   1.06088   1.10610
 Alpha virt. eigenvalues --    1.19268   1.31008   1.49531   1.55283   1.60632
 Alpha virt. eigenvalues --    1.82736   1.91809   1.93317   1.96581   2.14371
 Alpha virt. eigenvalues --    2.23905   2.30966   2.35196   2.37705   2.64678
 Alpha virt. eigenvalues --    2.66667   2.94951   3.02648   3.86121   4.20364
 Alpha virt. eigenvalues --    4.45739
          Condensed to atoms (all electrons):
               1          2          3          4          5          6
     1  C    4.615553   0.324846  -0.021190   0.365463   0.530903  -0.021765
     2  C    0.324846   5.326765   0.371898  -0.102992  -0.080839   0.371561
     3  H   -0.021190   0.371898   0.480845   0.003537  -0.000729  -0.016168
     4  H    0.365463  -0.102992   0.003537   0.613261  -0.041934   0.003530
     5  O    0.530903  -0.080839  -0.000729  -0.041934   7.986159  -0.001252
     6  H   -0.021765   0.371561  -0.016168   0.003530  -0.001252   0.481433
     7  H   -0.017888   0.344247  -0.022989   0.005594   0.003641  -0.022170
               7
     1  C   -0.017888
     2  C    0.344247
     3  H   -0.022989
     4  H    0.005594
     5  O    0.003641
     6  H   -0.022170
     7  H    0.545377
 Mulliken charges:
               1
     1  C    0.224077
     2  C   -0.555486
     3  H    0.204796
     4  H    0.153542
     5  O   -0.395949
     6  H    0.204831
     7  H    0.164189
 Sum of Mulliken charges =  -0.00000
 Mulliken charges with hydrogens summed into heavy atoms:
               1
     1  C    0.377619
     2  C    0.018330
     5  O   -0.395949
 Electronic spatial extent (au):  <R**2>=            165.3453
 Charge=              0.0000 electrons
 Dipole moment (field-independent basis, Debye):
    X=             -2.4143    Y=              1.2419    Z=              0.0107  Tot=              2.7150
 Quadrupole moment (field-independent basis, Debye-Ang):
   XX=            -20.8555   YY=            -17.2454   ZZ=            -17.5448
   XY=              1.1766   XZ=              0.0089   YZ=             -0.0060
 Traceless Quadrupole moment (field-independent basis, Debye-Ang):
   XX=             -2.3069   YY=              1.3032   ZZ=              1.0038
   XY=              1.1766   XZ=              0.0089   YZ=             -0.0060
 Octapole moment (field-independent basis, Debye-Ang**2):
  XXX=             -0.5997  YYY=              0.7332  ZZZ=              0.1046  XYY=              0.7151
  XXY=              0.5692  XXZ=             -0.0618  XZZ=              1.1251  YZZ=             -1.1753
  YYZ=             -0.0454  XYZ=              0.0114
 Hexadecapole moment (field-independent basis, Debye-Ang**3):
 XXXX=           -144.4221 YYYY=            -41.0855 ZZZZ=            -21.6670 XXXY=             -2.1002
 XXXZ=              0.1645 YYYX=             -0.1899 YYYZ=              0.1040 ZZZX=             -0.1217
 ZZZY=             -0.0587 XXYY=            -29.4806 XXZZ=            -26.3742 YYZZ=            -10.1319
 XXYZ=             -0.0455 YYXZ=              0.1008 ZZXY=              0.7661
 N-N= 6.935623108869D+01 E-N=-4.978077735310D+02  KE= 1.523596065086D+02
 1\1\GINC-NODE67\SP\RwB97X\6-31G(d)\C2H4O1\YANZ\22-Sep-2023\0\\# 6-31g(
 d) wb97x\\tmpdir/M2_conf_1_94.gjf\\0,1\C,0,0.,0.,0.\C,0,1.5088,0.,0.\H
 ,0,1.878,0.,1.02886\H,0,-0.46333,0.77841,-0.5394\O,0,-0.5974,-0.90871,
 0.60489\H,0,1.85607,-0.92905,-0.45997\H,0,1.94566,0.85132,-0.52722\\Ve
 rsion=ES64L-G16RevA.03\State=1-A\HF=-153.7791457\RMSD=5.647e-09\Dipole
 =0.6724565,0.6873967,-0.4650506\Quadrupole=-0.6341089,0.1573103,0.4767
 987,-1.3113787,0.8822971,0.3984312\PG=C01 [X(C2H4O1)]\\@


 BE LIKE A POSTAGE STAMP.  STICK TO ONE THING UNTIL
 YOU GET THERE -- JOSH BILLINGS
 Job cpu time:       0 days  0 hours  0 minutes 12.0 seconds.
 Elapsed time:       0 days  0 hours  0 minutes  6.1 seconds.
 File lengths (MBytes):  RWF=      6 Int=      0 D2E=      0 Chk=      1 Scr=      1
 Normal termination of Gaussian 16 at Fri Sep 22 16:32:08 2023.
