 Entering Gaussian System, Link 0=g16
 Initial command:
 /share/apps/gaussian/g16/l1.exe "/tmp/55568.mgr/Gau-358839.inp" -scrdir="/tmp/55568.mgr/"
 Entering Link 1 = /share/apps/gaussian/g16/l1.exe PID=    358840.
  
 Copyright (c) 1988,1990,1992,1993,1995,1998,2003,2009,2016,
            Gaussian, Inc.  All Rights Reserved.
  
 This is part of the Gaussian(R) 16 program.  It is based on
 the Gaussian(R) 09 system (copyright 2009, Gaussian, Inc.),
 the Gaussian(R) 03 system (copyright 2003, Gaussian, Inc.),
 the Gaussian(R) 98 system (copyright 1998, Gaussian, Inc.),
 the Gaussian(R) 94 system (copyright 1995, Gaussian, Inc.),
 the Gaussian 92(TM) system (copyright 1992, Gaussian, Inc.),
 the Gaussian 90(TM) system (copyright 1990, Gaussian, Inc.),
 the Gaussian 88(TM) system (copyright 1988, Gaussian, Inc.),
 the Gaussian 86(TM) system (copyright 1986, Carnegie Mellon
 University), and the Gaussian 82(TM) system (copyright 1983,
 Carnegie Mellon University). Gaussian is a federally registered
 trademark of Gaussian, Inc.
  
 This software contains proprietary and confidential information,
 including trade secrets, belonging to Gaussian, Inc.
  
 This software is provided under written license and may be
 used, copied, transmitted, or stored only in accord with that
 written license.
  
 The following legend is applicable only to US Government
 contracts under FAR:
  
                    RESTRICTED RIGHTS LEGEND
  
 Use, reproduction and disclosure by the US Government is
 subject to restrictions as set forth in subparagraphs (a)
 and (c) of the Commercial Computer Software - Restricted
 Rights clause in FAR 52.227-19.
  
 Gaussian, Inc.
 340 Quinnipiac St., Bldg. 40, Wallingford CT 06492
  
  
 ---------------------------------------------------------------
 Warning -- This program may not be used in any manner that
 competes with the business of Gaussian, Inc. or will provide
 assistance to any competitor of Gaussian, Inc.  The licensee
 of this program is prohibited from giving any competitor of
 Gaussian, Inc. access to this program.  By using this program,
 the user acknowledges that Gaussian, Inc. is engaged in the
 business of creating and licensing software in the field of
 computational chemistry and represents and warrants to the
 licensee that it is not a competitor of Gaussian, Inc. and that
 it will not use this program in any manner prohibited above.
 ---------------------------------------------------------------
  

 Cite this work as:
 Gaussian 16, Revision A.03,
 M. J. Frisch, G. W. Trucks, H. B. Schlegel, G. E. Scuseria, 
 M. A. Robb, J. R. Cheeseman, G. Scalmani, V. Barone, 
 G. A. Petersson, H. Nakatsuji, X. Li, M. Caricato, A. V. Marenich, 
 J. Bloino, B. G. Janesko, R. Gomperts, B. Mennucci, H. P. Hratchian, 
 J. V. Ortiz, A. F. Izmaylov, J. L. Sonnenberg, D. Williams-Young, 
 F. Ding, F. Lipparini, F. Egidi, J. Goings, B. Peng, A. Petrone, 
 T. Henderson, D. Ranasinghe, V. G. Zakrzewski, J. Gao, N. Rega, 
 G. Zheng, W. Liang, M. Hada, M. Ehara, K. Toyota, R. Fukuda, 
 J. Hasegawa, M. Ishida, T. Nakajima, Y. Honda, O. Kitao, H. Nakai, 
 T. Vreven, K. Throssell, J. A. Montgomery, Jr., J. E. Peralta, 
 F. Ogliaro, M. J. Bearpark, J. J. Heyd, E. N. Brothers, K. N. Kudin, 
 V. N. Staroverov, T. A. Keith, R. Kobayashi, J. Normand, 
 K. Raghavachari, A. P. Rendell, J. C. Burant, S. S. Iyengar, 
 J. Tomasi, M. Cossi, J. M. Millam, M. Klene, C. Adamo, R. Cammi, 
 J. W. Ochterski, R. L. Martin, K. Morokuma, O. Farkas, 
 J. B. Foresman, and D. J. Fox, Gaussian, Inc., Wallingford CT, 2016.
 
 ******************************************
 Gaussian 16:  ES64L-G16RevA.03 25-Dec-2016
                22-Sep-2023 
 ******************************************
 %nprocshared=2
 Will use up to    2 processors via shared memory.
 %mem=2GB
 ----------------
 # 6-31g(d) wb97x
 ----------------
 1/38=1,172=1/1;
 2/12=2,17=6,18=5,40=1/2;
 3/5=1,6=6,7=1,11=2,25=1,30=1,74=-57/1,2,3;
 4//1;
 5/5=2,38=5/2;
 6/7=2,8=2,9=2,10=2,28=1/1;
 99/5=1,9=1/99;
 -----------------------
 tmpdir/M2_conf_2_86.gjf
 -----------------------
 Symbolic Z-matrix:
 Charge =  0 Multiplicity = 1
 C                     0.        0.        0. 
 C                     1.5155    0.        0. 
 H                    -0.46333   0.       -0.94703 
 O                    -0.5974   -0.02038   1.09143 
 H                     1.86277  -0.90732   0.50148 
 H                     1.85963   0.85278   0.59093 
 H                     1.95236   0.05153  -1.00003 
 
                          Input orientation:                          
 ---------------------------------------------------------------------
 Center     Atomic      Atomic             Coordinates (Angstroms)
 Number     Number       Type             X           Y           Z
 ---------------------------------------------------------------------
      1          6           0        0.000000    0.000000    0.000000
      2          6           0        1.515500    0.000000    0.000000
      3          1           0       -0.463330    0.000000   -0.947030
      4          8           0       -0.597400   -0.020380    1.091430
      5          1           0        1.862770   -0.907320    0.501480
      6          1           0        1.859630    0.852780    0.590930
      7          1           0        1.952360    0.051530   -1.000030
 ---------------------------------------------------------------------
                    Distance matrix (angstroms):
                    1          2          3          4          5
     1  C    0.000000
     2  C    1.515500   0.000000
     3  H    1.054296   2.193772   0.000000
     4  O    1.244396   2.378231   2.042966   0.000000
     5  H    2.131812   1.093302   2.886547   2.680884   0.000000
     6  H    2.129473   1.093095   2.913537   2.655166   1.762374
     7  H    2.194180   1.092503   2.416821   3.298583   1.783803
                    6          7
     6  H    0.000000
     7  H    1.783747   0.000000
 Stoichiometry    C2H4O
 Framework group  C1[X(C2H4O)]
 Deg. of freedom    15
 Full point group                 C1      NOp   1
 Largest Abelian subgroup         C1      NOp   1
 Largest concise Abelian subgroup C1      NOp   1
                         Standard orientation:                         
 ---------------------------------------------------------------------
 Center     Atomic      Atomic             Coordinates (Angstroms)
 Number     Number       Type             X           Y           Z
 ---------------------------------------------------------------------
      1          6           0        0.231268    0.460200   -0.003400
      2          6           0       -1.156159   -0.149532    0.000220
      3          1           0        0.274486    1.513544    0.008380
      4          8           0        1.217383   -0.298802    0.000699
      5          1           0       -1.265402   -0.758747    0.901459
      6          1           0       -1.240030   -0.819133   -0.859697
      7          1           0       -1.958772    0.590748   -0.036653
 ---------------------------------------------------------------------
 Rotational constants (GHZ):          52.2160859          10.3768228           9.1470514
 Standard basis: 6-31G(d) (6D, 7F)
 There are    53 symmetry adapted cartesian basis functions of A   symmetry.
 There are    53 symmetry adapted basis functions of A   symmetry.
    53 basis functions,   100 primitive gaussians,    53 cartesian basis functions
    12 alpha electrons       12 beta electrons
       nuclear repulsion energy        69.2705727425 Hartrees.
 NAtoms=    7 NActive=    7 NUniq=    7 SFac= 1.00D+00 NAtFMM=   60 NAOKFM=F Big=F
 Integral buffers will be    131072 words long.
 Raffenetti 2 integral format.
 Two-electron integral symmetry is turned on.
 One-electron integrals computed using PRISM.
 NBasis=    53 RedAO= T EigKep=  6.37D-03  NBF=    53
 NBsUse=    53 1.00D-06 EigRej= -1.00D+00 NBFU=    53
 ExpMin= 1.61D-01 ExpMax= 5.48D+03 ExpMxC= 8.25D+02 IAcc=3 IRadAn=         5 AccDes= 0.00D+00
 Harris functional with IExCor= 4538 and IRadAn=       5 diagonalized for initial guess.
 HarFok:  IExCor= 4538 AccDes= 0.00D+00 IRadAn=         5 IDoV= 1 UseB2=F ITyADJ=14
 ICtDFT=  3500011 ScaDFX=  1.000000  1.000000  1.000000  1.000000
 FoFCou: FMM=F IPFlag=           0 FMFlag=      100000 FMFlg1=           0
         NFxFlg=           0 DoJE=T BraDBF=F KetDBF=T FulRan=T
         wScrn=  0.000000 ICntrl=       500 IOpCl=  0 I1Cent=   200000004 NGrid=           0
         NMat0=    1 NMatS0=      1 NMatT0=    0 NMatD0=    1 NMtDS0=    0 NMtDT0=    0
 Petite list used in FoFCou.
 Keep R1 ints in memory in canonical form, NReq=3800804.
 Requested convergence on RMS density matrix=1.00D-08 within 128 cycles.
 Requested convergence on MAX density matrix=1.00D-06.
 Requested convergence on             energy=1.00D-06.
 No special actions if energy rises.
 Integral accuracy reduced to 1.0D-05 until final iterations.
 Initial convergence to 1.0D-05 achieved.  Increase integral accuracy.
 SCF Done:  E(RwB97X) =  -153.779151976     A.U. after   14 cycles
            NFock= 14  Conv=0.65D-08     -V/T= 2.0094

 **********************************************************************

            Population analysis using the SCF density.

 **********************************************************************

 Orbital symmetries:
       Occupied  (A) (A) (A) (A) (A) (A) (A) (A) (A) (A) (A) (A)
       Virtual   (A) (A) (A) (A) (A) (A) (A) (A) (A) (A) (A) (A)
                 (A) (A) (A) (A) (A) (A) (A) (A) (A) (A) (A) (A)
                 (A) (A) (A) (A) (A) (A) (A) (A) (A) (A) (A) (A)
                 (A) (A) (A) (A) (A)
 The electronic state is 1-A.
 Alpha  occ. eigenvalues --  -19.21672 -10.36608 -10.27653  -1.15348  -0.87832
 Alpha  occ. eigenvalues --   -0.71709  -0.58723  -0.55106  -0.53476  -0.50257
 Alpha  occ. eigenvalues --   -0.45450  -0.35773
 Alpha virt. eigenvalues --    0.06179   0.21017   0.22480   0.27139   0.27289
 Alpha virt. eigenvalues --    0.33562   0.37235   0.63174   0.64128   0.68276
 Alpha virt. eigenvalues --    0.70677   0.75380   0.82446   0.88453   0.96332
 Alpha virt. eigenvalues --    0.97441   0.99307   1.05381   1.05963   1.10605
 Alpha virt. eigenvalues --    1.19243   1.30798   1.49410   1.55440   1.60676
 Alpha virt. eigenvalues --    1.82515   1.91742   1.93057   1.96632   2.14266
 Alpha virt. eigenvalues --    2.24259   2.30773   2.34784   2.37456   2.64318
 Alpha virt. eigenvalues --    2.66396   2.94596   3.02587   3.86046   4.20198
 Alpha virt. eigenvalues --    4.45696
          Condensed to atoms (all electrons):
               1          2          3          4          5          6
     1  C    4.619636   0.324672   0.364568   0.530388  -0.021694  -0.022172
     2  C    0.324672   5.324069  -0.102275  -0.080473   0.371832   0.371475
     3  H    0.364568  -0.102275   0.613349  -0.041960   0.003493   0.003679
     4  O    0.530388  -0.080473  -0.041960   7.985514  -0.001141  -0.000590
     5  H   -0.021694   0.371832   0.003493  -0.001141   0.481071  -0.015642
     6  H   -0.022172   0.371475   0.003679  -0.000590  -0.015642   0.481178
     7  H   -0.017817   0.344562   0.005561   0.003585  -0.022414  -0.022175
               7
     1  C   -0.017817
     2  C    0.344562
     3  H    0.005561
     4  O    0.003585
     5  H   -0.022414
     6  H   -0.022175
     7  H    0.544264
 Mulliken charges:
               1
     1  C    0.222419
     2  C   -0.553860
     3  H    0.153585
     4  O   -0.395321
     5  H    0.204496
     6  H    0.204247
     7  H    0.164434
 Sum of Mulliken charges =  -0.00000
 Mulliken charges with hydrogens summed into heavy atoms:
               1
     1  C    0.376005
     2  C    0.019316
     4  O   -0.395321
 Electronic spatial extent (au):  <R**2>=            165.6946
 Charge=              0.0000 electrons
 Dipole moment (field-independent basis, Debye):
    X=             -2.3988    Y=              1.2518    Z=              0.0084  Tot=              2.7058
 Quadrupole moment (field-independent basis, Debye-Ang):
   XX=            -20.8871   YY=            -17.2589   ZZ=            -17.5332
   XY=              1.1461   XZ=             -0.0180   YZ=             -0.0015
 Traceless Quadrupole moment (field-independent basis, Debye-Ang):
   XX=             -2.3274   YY=              1.3008   ZZ=              1.0265
   XY=              1.1461   XZ=             -0.0180   YZ=             -0.0015
 Octapole moment (field-independent basis, Debye-Ang**2):
  XXX=             -0.5288  YYY=              0.7600  ZZZ=              0.0990  XYY=              0.7516
  XXY=              0.6483  XXZ=              0.0090  XZZ=              1.1286  YZZ=             -1.1814
  YYZ=             -0.0396  XYZ=              0.0295
 Hexadecapole moment (field-independent basis, Debye-Ang**3):
 XXXX=           -144.9265 YYYY=            -41.1173 ZZZZ=            -21.6862 XXXY=             -2.2710
 XXXZ=              0.0192 YYYX=             -0.2517 YYYZ=              0.1019 ZZZX=             -0.1418
 ZZZY=             -0.0454 XXYY=            -29.6033 XXZZ=            -26.4692 YYZZ=            -10.1392
 XXYZ=             -0.0918 YYXZ=              0.0731 ZZXY=              0.7541
 N-N= 6.927057274247D+01 E-N=-4.976281576269D+02  KE= 1.523489301372D+02
 1\1\GINC-NODE67\SP\RwB97X\6-31G(d)\C2H4O1\YANZ\22-Sep-2023\0\\# 6-31g(
 d) wb97x\\tmpdir/M2_conf_2_86.gjf\\0,1\C,0,0.,0.,0.\C,0,1.5155,0.,0.\H
 ,0,-0.46333,0.,-0.94703\O,0,-0.5974,-0.02038,1.09143\H,0,1.86277,-0.90
 732,0.50148\H,0,1.85963,0.85278,0.59093\H,0,1.95236,0.05153,-1.00003\\
 Version=ES64L-G16RevA.03\State=1-A\HF=-153.779152\RMSD=6.527e-09\Dipol
 e=0.6658486,0.0095737,-0.8305364\Quadrupole=-0.6659331,0.7627568,-0.09
 68237,-0.0375005,1.5694241,0.0198274\PG=C01 [X(C2H4O1)]\\@


 LET US PLACE AT THE END OF EVERY CHAPTER.....THE
 TWO LETTERS USED BY THE ROMAN JUDGES WHEN THEY DID
 NOT UNDERSTAND A PLEADING.
 N. L. -NON LIQUET- IT IS NOT CLEAR.
                                              -- VOLTAIRE
 Job cpu time:       0 days  0 hours  0 minutes 12.0 seconds.
 Elapsed time:       0 days  0 hours  0 minutes  6.1 seconds.
 File lengths (MBytes):  RWF=      6 Int=      0 D2E=      0 Chk=      1 Scr=      1
 Normal termination of Gaussian 16 at Fri Sep 22 16:33:08 2023.
