 Entering Gaussian System, Link 0=g16
 Initial command:
 /share/apps/gaussian/g16/l1.exe "/tmp/55568.mgr/Gau-356474.inp" -scrdir="/tmp/55568.mgr/"
 Entering Link 1 = /share/apps/gaussian/g16/l1.exe PID=    356475.
  
 Copyright (c) 1988,1990,1992,1993,1995,1998,2003,2009,2016,
            Gaussian, Inc.  All Rights Reserved.
  
 This is part of the Gaussian(R) 16 program.  It is based on
 the Gaussian(R) 09 system (copyright 2009, Gaussian, Inc.),
 the Gaussian(R) 03 system (copyright 2003, Gaussian, Inc.),
 the Gaussian(R) 98 system (copyright 1998, Gaussian, Inc.),
 the Gaussian(R) 94 system (copyright 1995, Gaussian, Inc.),
 the Gaussian 92(TM) system (copyright 1992, Gaussian, Inc.),
 the Gaussian 90(TM) system (copyright 1990, Gaussian, Inc.),
 the Gaussian 88(TM) system (copyright 1988, Gaussian, Inc.),
 the Gaussian 86(TM) system (copyright 1986, Carnegie Mellon
 University), and the Gaussian 82(TM) system (copyright 1983,
 Carnegie Mellon University). Gaussian is a federally registered
 trademark of Gaussian, Inc.
  
 This software contains proprietary and confidential information,
 including trade secrets, belonging to Gaussian, Inc.
  
 This software is provided under written license and may be
 used, copied, transmitted, or stored only in accord with that
 written license.
  
 The following legend is applicable only to US Government
 contracts under FAR:
  
                    RESTRICTED RIGHTS LEGEND
  
 Use, reproduction and disclosure by the US Government is
 subject to restrictions as set forth in subparagraphs (a)
 and (c) of the Commercial Computer Software - Restricted
 Rights clause in FAR 52.227-19.
  
 Gaussian, Inc.
 340 Quinnipiac St., Bldg. 40, Wallingford CT 06492
  
  
 ---------------------------------------------------------------
 Warning -- This program may not be used in any manner that
 competes with the business of Gaussian, Inc. or will provide
 assistance to any competitor of Gaussian, Inc.  The licensee
 of this program is prohibited from giving any competitor of
 Gaussian, Inc. access to this program.  By using this program,
 the user acknowledges that Gaussian, Inc. is engaged in the
 business of creating and licensing software in the field of
 computational chemistry and represents and warrants to the
 licensee that it is not a competitor of Gaussian, Inc. and that
 it will not use this program in any manner prohibited above.
 ---------------------------------------------------------------
  

 Cite this work as:
 Gaussian 16, Revision A.03,
 M. J. Frisch, G. W. Trucks, H. B. Schlegel, G. E. Scuseria, 
 M. A. Robb, J. R. Cheeseman, G. Scalmani, V. Barone, 
 G. A. Petersson, H. Nakatsuji, X. Li, M. Caricato, A. V. Marenich, 
 J. Bloino, B. G. Janesko, R. Gomperts, B. Mennucci, H. P. Hratchian, 
 J. V. Ortiz, A. F. Izmaylov, J. L. Sonnenberg, D. Williams-Young, 
 F. Ding, F. Lipparini, F. Egidi, J. Goings, B. Peng, A. Petrone, 
 T. Henderson, D. Ranasinghe, V. G. Zakrzewski, J. Gao, N. Rega, 
 G. Zheng, W. Liang, M. Hada, M. Ehara, K. Toyota, R. Fukuda, 
 J. Hasegawa, M. Ishida, T. Nakajima, Y. Honda, O. Kitao, H. Nakai, 
 T. Vreven, K. Throssell, J. A. Montgomery, Jr., J. E. Peralta, 
 F. Ogliaro, M. J. Bearpark, J. J. Heyd, E. N. Brothers, K. N. Kudin, 
 V. N. Staroverov, T. A. Keith, R. Kobayashi, J. Normand, 
 K. Raghavachari, A. P. Rendell, J. C. Burant, S. S. Iyengar, 
 J. Tomasi, M. Cossi, J. M. Millam, M. Klene, C. Adamo, R. Cammi, 
 J. W. Ochterski, R. L. Martin, K. Morokuma, O. Farkas, 
 J. B. Foresman, and D. J. Fox, Gaussian, Inc., Wallingford CT, 2016.
 
 ******************************************
 Gaussian 16:  ES64L-G16RevA.03 25-Dec-2016
                22-Sep-2023 
 ******************************************
 %nprocshared=2
 Will use up to    2 processors via shared memory.
 %mem=2GB
 ----------------
 # 6-31g(d) wb97x
 ----------------
 1/38=1,172=1/1;
 2/12=2,17=6,18=5,40=1/2;
 3/5=1,6=6,7=1,11=2,25=1,30=1,74=-57/1,2,3;
 4//1;
 5/5=2,38=5/2;
 6/7=2,8=2,9=2,10=2,28=1/1;
 99/5=1,9=1/99;
 -----------------------
 tmpdir/M2_conf_1_17.gjf
 -----------------------
 Symbolic Z-matrix:
 Charge =  0 Multiplicity = 1
 C                     0.        0.        0. 
 C                     1.5268    0.        0. 
 H                     1.95244   0.        1.00911 
 H                    -0.34701  -1.09143   0.29838 
 H                    -0.40637   0.29942  -0.98612 
 H                    -0.40467   0.66075   0.77501 
 H                     1.97187   0.8278   -0.54191 
 H                     1.90315  -0.93168  -0.44979 
 
                          Input orientation:                          
 ---------------------------------------------------------------------
 Center     Atomic      Atomic             Coordinates (Angstroms)
 Number     Number       Type             X           Y           Z
 ---------------------------------------------------------------------
      1          6           0        0.000000    0.000000    0.000000
      2          6           0        1.526800    0.000000    0.000000
      3          1           0        1.952440    0.000000    1.009110
      4          1           0       -0.347010   -1.091430    0.298380
      5          1           0       -0.406370    0.299420   -0.986120
      6          1           0       -0.404670    0.660750    0.775010
      7          1           0        1.971870    0.827800   -0.541910
      8          1           0        1.903150   -0.931680   -0.449790
 ---------------------------------------------------------------------
                    Distance matrix (angstroms):
                    1          2          3          4          5
     1  C    0.000000
     2  C    1.526800   0.000000
     3  H    2.197800   1.095204   0.000000
     4  H    1.183497   2.188930   2.642693   0.000000
     5  H    1.107800   2.190715   3.103962   1.894183   0.000000
     6  H    1.095896   2.183531   2.459138   1.816765   1.797816
     7  H    2.206171   1.084899   1.758207   3.125178   2.476395
     8  H    2.166176   1.100899   1.731718   2.376657   2.671543
                    6          7          8
     6  H    0.000000
     7  H    2.722155   0.000000
     8  H    3.059739   1.763230   0.000000
 Stoichiometry    C2H6
 Framework group  C1[X(C2H6)]
 Deg. of freedom    18
 Full point group                 C1      NOp   1
 Largest Abelian subgroup         C1      NOp   1
 Largest concise Abelian subgroup C1      NOp   1
                         Standard orientation:                         
 ---------------------------------------------------------------------
 Center     Atomic      Atomic             Coordinates (Angstroms)
 Number     Number       Type             X           Y           Z
 ---------------------------------------------------------------------
      1          6           0       -0.768277    0.017520    0.001349
      2          6           0        0.758504    0.010528    0.004435
      3          1           0        1.179785   -0.580382    0.824691
      4          1           0       -1.119341   -1.041276   -0.394088
      5          1           0       -1.169628    0.838052   -0.625441
      6          1           0       -1.174608    0.103570    1.015489
      7          1           0        1.208008    0.996944    0.048455
      8          1           0        1.134424   -0.485199   -0.903814
 ---------------------------------------------------------------------
 Rotational constants (GHZ):          77.8086655          19.9828396          19.7543755
 Standard basis: 6-31G(d) (6D, 7F)
 There are    42 symmetry adapted cartesian basis functions of A   symmetry.
 There are    42 symmetry adapted basis functions of A   symmetry.
    42 basis functions,    80 primitive gaussians,    42 cartesian basis functions
     9 alpha electrons        9 beta electrons
       nuclear repulsion energy        41.8653328085 Hartrees.
 NAtoms=    8 NActive=    8 NUniq=    8 SFac= 1.00D+00 NAtFMM=   60 NAOKFM=F Big=F
 Integral buffers will be    131072 words long.
 Raffenetti 2 integral format.
 Two-electron integral symmetry is turned on.
 One-electron integrals computed using PRISM.
 NBasis=    42 RedAO= T EigKep=  8.49D-03  NBF=    42
 NBsUse=    42 1.00D-06 EigRej= -1.00D+00 NBFU=    42
 ExpMin= 1.61D-01 ExpMax= 3.05D+03 ExpMxC= 4.57D+02 IAcc=3 IRadAn=         5 AccDes= 0.00D+00
 Harris functional with IExCor= 4538 and IRadAn=       5 diagonalized for initial guess.
 HarFok:  IExCor= 4538 AccDes= 0.00D+00 IRadAn=         5 IDoV= 1 UseB2=F ITyADJ=14
 ICtDFT=  3500011 ScaDFX=  1.000000  1.000000  1.000000  1.000000
 FoFCou: FMM=F IPFlag=           0 FMFlag=      100000 FMFlg1=           0
         NFxFlg=           0 DoJE=T BraDBF=F KetDBF=T FulRan=T
         wScrn=  0.000000 ICntrl=       500 IOpCl=  0 I1Cent=   200000004 NGrid=           0
         NMat0=    1 NMatS0=      1 NMatT0=    0 NMatD0=    1 NMtDS0=    0 NMtDT0=    0
 Petite list used in FoFCou.
 Keep R1 ints in memory in canonical form, NReq=2543288.
 Requested convergence on RMS density matrix=1.00D-08 within 128 cycles.
 Requested convergence on MAX density matrix=1.00D-06.
 Requested convergence on             energy=1.00D-06.
 No special actions if energy rises.
 Integral accuracy reduced to 1.0D-05 until final iterations.
 Initial convergence to 1.0D-05 achieved.  Increase integral accuracy.
 SCF Done:  E(RwB97X) =  -79.7947199827     A.U. after   11 cycles
            NFock= 11  Conv=0.85D-08     -V/T= 2.0120

 **********************************************************************

            Population analysis using the SCF density.

 **********************************************************************

 Orbital symmetries:
       Occupied  (A) (A) (A) (A) (A) (A) (A) (A) (A)
       Virtual   (A) (A) (A) (A) (A) (A) (A) (A) (A) (A) (A) (A)
                 (A) (A) (A) (A) (A) (A) (A) (A) (A) (A) (A) (A)
                 (A) (A) (A) (A) (A) (A) (A) (A) (A)
 The electronic state is 1-A.
 Alpha  occ. eigenvalues --  -10.26621 -10.25396  -0.87695  -0.73069  -0.54294
 Alpha  occ. eigenvalues --   -0.53590  -0.46734  -0.44284  -0.43131
 Alpha virt. eigenvalues --    0.19358   0.23708   0.24871   0.25277   0.29646
 Alpha virt. eigenvalues --    0.30832   0.34040   0.61834   0.64524   0.65912
 Alpha virt. eigenvalues --    0.74937   0.76674   0.78943   0.96226   0.99432
 Alpha virt. eigenvalues --    1.01277   1.03172   1.04122   1.09166   1.16395
 Alpha virt. eigenvalues --    1.54781   1.61536   1.62530   2.04018   2.08356
 Alpha virt. eigenvalues --    2.11297   2.29573   2.34018   2.44509   2.49313
 Alpha virt. eigenvalues --    2.69942   4.26219   4.49135
          Condensed to atoms (all electrons):
               1          2          3          4          5          6
     1  C    5.054486   0.346880  -0.031663   0.380442   0.387371   0.387694
     2  C    0.346880   5.062978   0.388604  -0.038254  -0.034358  -0.034733
     3  H   -0.031663   0.388604   0.549896  -0.000372   0.003658  -0.005878
     4  H    0.380442  -0.038254  -0.000372   0.577418  -0.021195  -0.029307
     5  H    0.387371  -0.034358   0.003658  -0.021195   0.538074  -0.027908
     6  H    0.387694  -0.034733  -0.005878  -0.029307  -0.027908   0.545294
     7  H   -0.031468   0.389425  -0.028281   0.003757  -0.004798  -0.000528
     8  H   -0.035649   0.390152  -0.032876  -0.007593  -0.000928   0.004105
               7          8
     1  C   -0.031468  -0.035649
     2  C    0.389425   0.390152
     3  H   -0.028281  -0.032876
     4  H    0.003757  -0.007593
     5  H   -0.004798  -0.000928
     6  H   -0.000528   0.004105
     7  H    0.540085  -0.028459
     8  H   -0.028459   0.556088
 Mulliken charges:
               1
     1  C   -0.458093
     2  C   -0.470692
     3  H    0.156913
     4  H    0.135104
     5  H    0.160084
     6  H    0.161260
     7  H    0.160266
     8  H    0.155159
 Sum of Mulliken charges =   0.00000
 Mulliken charges with hydrogens summed into heavy atoms:
               1
     1  C   -0.001645
     2  C    0.001645
 Electronic spatial extent (au):  <R**2>=            110.3797
 Charge=              0.0000 electrons
 Dipole moment (field-independent basis, Debye):
    X=              0.0630    Y=              0.0210    Z=              0.0348  Tot=              0.0750
 Quadrupole moment (field-independent basis, Debye-Ang):
   XX=            -15.3531   YY=            -14.6051   ZZ=            -14.8753
   XY=             -0.1003   XZ=             -0.0457   YZ=             -0.0771
 Traceless Quadrupole moment (field-independent basis, Debye-Ang):
   XX=             -0.4086   YY=              0.3394   ZZ=              0.0692
   XY=             -0.1003   XZ=             -0.0457   YZ=             -0.0771
 Octapole moment (field-independent basis, Debye-Ang**2):
  XXX=              0.7719  YYY=              0.3696  ZZZ=              0.5647  XYY=              0.0752
  XXY=              0.2661  XXZ=              0.2510  XZZ=             -0.0098  YZZ=             -0.2257
  YYZ=             -0.4765  XYZ=              0.1053
 Hexadecapole moment (field-independent basis, Debye-Ang**3):
 XXXX=            -93.4886 YYYY=            -29.5721 ZZZZ=            -28.6436 XXXY=             -0.4044
 XXXZ=             -0.1734 YYYX=              0.7065 YYYZ=             -0.0941 ZZZX=             -0.9277
 ZZZY=             -0.1648 XXYY=            -19.1044 XXZZ=            -19.2517 YYZZ=             -9.6850
 XXYZ=             -0.2389 YYXZ=              0.7905 ZZXY=             -1.0087
 N-N= 4.186533280847D+01 E-N=-2.673900612729D+02  KE= 7.885062718647D+01
 1\1\GINC-NODE67\SP\RwB97X\6-31G(d)\C2H6\YANZ\22-Sep-2023\0\\# 6-31g(d)
  wb97x\\tmpdir/M2_conf_1_17.gjf\\0,1\C,0,0.,0.,0.\C,0,1.5268,0.,0.\H,0
 ,1.95244,0.,1.00911\H,0,-0.34701,-1.09143,0.29838\H,0,-0.40637,0.29942
 ,-0.98612\H,0,-0.40467,0.66075,0.77501\H,0,1.97187,0.8278,-0.54191\H,0
 ,1.90315,-0.93168,-0.44979\\Version=ES64L-G16RevA.03\State=1-A\HF=-79.
 79472\RMSD=8.549e-09\Dipole=0.024792,0.014767,0.0061979\Quadrupole=-0.
 3032253,0.1291379,0.1740874,-0.0819271,0.0182799,-0.1131101\PG=C01 [X(
 C2H6)]\\@


 WOE UNTO THEM THAT CALL EVIL GOOD, AND GOOD EVIL      
 Job cpu time:       0 days  0 hours  0 minutes  9.9 seconds.
 Elapsed time:       0 days  0 hours  0 minutes  4.9 seconds.
 File lengths (MBytes):  RWF=      6 Int=      0 D2E=      0 Chk=      1 Scr=      1
 Normal termination of Gaussian 16 at Fri Sep 22 16:31:35 2023.
