 Entering Gaussian System, Link 0=g16
 Initial command:
 /share/apps/gaussian/g16/l1.exe "/tmp/55568.mgr/Gau-358122.inp" -scrdir="/tmp/55568.mgr/"
 Entering Link 1 = /share/apps/gaussian/g16/l1.exe PID=    358123.
  
 Copyright (c) 1988,1990,1992,1993,1995,1998,2003,2009,2016,
            Gaussian, Inc.  All Rights Reserved.
  
 This is part of the Gaussian(R) 16 program.  It is based on
 the Gaussian(R) 09 system (copyright 2009, Gaussian, Inc.),
 the Gaussian(R) 03 system (copyright 2003, Gaussian, Inc.),
 the Gaussian(R) 98 system (copyright 1998, Gaussian, Inc.),
 the Gaussian(R) 94 system (copyright 1995, Gaussian, Inc.),
 the Gaussian 92(TM) system (copyright 1992, Gaussian, Inc.),
 the Gaussian 90(TM) system (copyright 1990, Gaussian, Inc.),
 the Gaussian 88(TM) system (copyright 1988, Gaussian, Inc.),
 the Gaussian 86(TM) system (copyright 1986, Carnegie Mellon
 University), and the Gaussian 82(TM) system (copyright 1983,
 Carnegie Mellon University). Gaussian is a federally registered
 trademark of Gaussian, Inc.
  
 This software contains proprietary and confidential information,
 including trade secrets, belonging to Gaussian, Inc.
  
 This software is provided under written license and may be
 used, copied, transmitted, or stored only in accord with that
 written license.
  
 The following legend is applicable only to US Government
 contracts under FAR:
  
                    RESTRICTED RIGHTS LEGEND
  
 Use, reproduction and disclosure by the US Government is
 subject to restrictions as set forth in subparagraphs (a)
 and (c) of the Commercial Computer Software - Restricted
 Rights clause in FAR 52.227-19.
  
 Gaussian, Inc.
 340 Quinnipiac St., Bldg. 40, Wallingford CT 06492
  
  
 ---------------------------------------------------------------
 Warning -- This program may not be used in any manner that
 competes with the business of Gaussian, Inc. or will provide
 assistance to any competitor of Gaussian, Inc.  The licensee
 of this program is prohibited from giving any competitor of
 Gaussian, Inc. access to this program.  By using this program,
 the user acknowledges that Gaussian, Inc. is engaged in the
 business of creating and licensing software in the field of
 computational chemistry and represents and warrants to the
 licensee that it is not a competitor of Gaussian, Inc. and that
 it will not use this program in any manner prohibited above.
 ---------------------------------------------------------------
  

 Cite this work as:
 Gaussian 16, Revision A.03,
 M. J. Frisch, G. W. Trucks, H. B. Schlegel, G. E. Scuseria, 
 M. A. Robb, J. R. Cheeseman, G. Scalmani, V. Barone, 
 G. A. Petersson, H. Nakatsuji, X. Li, M. Caricato, A. V. Marenich, 
 J. Bloino, B. G. Janesko, R. Gomperts, B. Mennucci, H. P. Hratchian, 
 J. V. Ortiz, A. F. Izmaylov, J. L. Sonnenberg, D. Williams-Young, 
 F. Ding, F. Lipparini, F. Egidi, J. Goings, B. Peng, A. Petrone, 
 T. Henderson, D. Ranasinghe, V. G. Zakrzewski, J. Gao, N. Rega, 
 G. Zheng, W. Liang, M. Hada, M. Ehara, K. Toyota, R. Fukuda, 
 J. Hasegawa, M. Ishida, T. Nakajima, Y. Honda, O. Kitao, H. Nakai, 
 T. Vreven, K. Throssell, J. A. Montgomery, Jr., J. E. Peralta, 
 F. Ogliaro, M. J. Bearpark, J. J. Heyd, E. N. Brothers, K. N. Kudin, 
 V. N. Staroverov, T. A. Keith, R. Kobayashi, J. Normand, 
 K. Raghavachari, A. P. Rendell, J. C. Burant, S. S. Iyengar, 
 J. Tomasi, M. Cossi, J. M. Millam, M. Klene, C. Adamo, R. Cammi, 
 J. W. Ochterski, R. L. Martin, K. Morokuma, O. Farkas, 
 J. B. Foresman, and D. J. Fox, Gaussian, Inc., Wallingford CT, 2016.
 
 ******************************************
 Gaussian 16:  ES64L-G16RevA.03 25-Dec-2016
                22-Sep-2023 
 ******************************************
 %nprocshared=2
 Will use up to    2 processors via shared memory.
 %mem=2GB
 ----------------
 # 6-31g(d) wb97x
 ----------------
 1/38=1,172=1/1;
 2/12=2,17=6,18=5,40=1/2;
 3/5=1,6=6,7=1,11=2,25=1,30=1,74=-57/1,2,3;
 4//1;
 5/5=2,38=5/2;
 6/7=2,8=2,9=2,10=2,28=1/1;
 99/5=1,9=1/99;
 ----------------------
 tmpdir/M2_conf_2_5.gjf
 ----------------------
 Symbolic Z-matrix:
 Charge = -1 Multiplicity = 1
 O                     0.        0.        0. 
 C                     1.2409    0.        0. 
 C                     1.94903   0.        1.3844 
 O                     2.08382  -0.00404  -0.92505 
 H                     3.03286  -0.02558   1.34348 
 O                     1.35743  -0.00448   2.39601 
 
                          Input orientation:                          
 ---------------------------------------------------------------------
 Center     Atomic      Atomic             Coordinates (Angstroms)
 Number     Number       Type             X           Y           Z
 ---------------------------------------------------------------------
      1          8           0        0.000000    0.000000    0.000000
      2          6           0        1.240900    0.000000    0.000000
      3          6           0        1.949030    0.000000    1.384400
      4          8           0        2.083820   -0.004040   -0.925050
      5          1           0        3.032860   -0.025580    1.343480
      6          8           0        1.357430   -0.004480    2.396010
 ---------------------------------------------------------------------
                    Distance matrix (angstroms):
                    1          2          3          4          5
     1  O    0.000000
     2  C    1.240900   0.000000
     3  C    2.390665   1.554996   0.000000
     4  O    2.279921   1.251498   2.313384   0.000000
     5  H    3.317203   2.239802   1.084904   2.459140   0.000000
     6  O    2.753816   2.398846   1.171907   3.399571   1.978719
                    6
     6  O    0.000000
 Stoichiometry    C2HO3(1-)
 Framework group  C1[X(C2HO3)]
 Deg. of freedom    12
 Full point group                 C1      NOp   1
 Largest Abelian subgroup         C1      NOp   1
 Largest concise Abelian subgroup C1      NOp   1
                         Standard orientation:                         
 ---------------------------------------------------------------------
 Center     Atomic      Atomic             Coordinates (Angstroms)
 Number     Number       Type             X           Y           Z
 ---------------------------------------------------------------------
      1          8           0       -0.671248    1.299608    0.001523
      2          6           0       -0.584593    0.061742   -0.001923
      3          6           0        0.845877   -0.547978   -0.004670
      4          8           0       -1.448518   -0.843728    0.000299
      5          1           0        0.880763   -1.632086    0.017924
      6          8           0        1.813708    0.112808    0.000883
 ---------------------------------------------------------------------
 Rotational constants (GHZ):          11.2631823           4.7286445           3.3304541
 Standard basis: 6-31G(d) (6D, 7F)
 There are    77 symmetry adapted cartesian basis functions of A   symmetry.
 There are    77 symmetry adapted basis functions of A   symmetry.
    77 basis functions,   144 primitive gaussians,    77 cartesian basis functions
    19 alpha electrons       19 beta electrons
       nuclear repulsion energy       153.4809163092 Hartrees.
 NAtoms=    6 NActive=    6 NUniq=    6 SFac= 1.00D+00 NAtFMM=   60 NAOKFM=F Big=F
 Integral buffers will be    131072 words long.
 Raffenetti 2 integral format.
 Two-electron integral symmetry is turned on.
 One-electron integrals computed using PRISM.
 NBasis=    77 RedAO= T EigKep=  2.49D-03  NBF=    77
 NBsUse=    77 1.00D-06 EigRej= -1.00D+00 NBFU=    77
 ExpMin= 1.61D-01 ExpMax= 5.48D+03 ExpMxC= 8.25D+02 IAcc=3 IRadAn=         5 AccDes= 0.00D+00
 Harris functional with IExCor= 4538 and IRadAn=       5 diagonalized for initial guess.
 HarFok:  IExCor= 4538 AccDes= 0.00D+00 IRadAn=         5 IDoV= 1 UseB2=F ITyADJ=14
 ICtDFT=  3500011 ScaDFX=  1.000000  1.000000  1.000000  1.000000
 FoFCou: FMM=F IPFlag=           0 FMFlag=      100000 FMFlg1=           0
         NFxFlg=           0 DoJE=T BraDBF=F KetDBF=T FulRan=T
         wScrn=  0.000000 ICntrl=       500 IOpCl=  0 I1Cent=   200000004 NGrid=           0
         NMat0=    1 NMatS0=      1 NMatT0=    0 NMatD0=    1 NMtDS0=    0 NMtDT0=    0
 Petite list used in FoFCou.
 Keep R1 ints in memory in canonical form, NReq=10822253.
 Requested convergence on RMS density matrix=1.00D-08 within 128 cycles.
 Requested convergence on MAX density matrix=1.00D-06.
 Requested convergence on             energy=1.00D-06.
 No special actions if energy rises.
 Integral accuracy reduced to 1.0D-05 until final iterations.
 Initial convergence to 1.0D-05 achieved.  Increase integral accuracy.
 SCF Done:  E(RwB97X) =  -302.433483236     A.U. after   17 cycles
            NFock= 17  Conv=0.32D-08     -V/T= 2.0071

 **********************************************************************

            Population analysis using the SCF density.

 **********************************************************************

 Orbital symmetries:
       Occupied  (A) (A) (A) (A) (A) (A) (A) (A) (A) (A) (A) (A)
                 (A) (A) (A) (A) (A) (A) (A)
       Virtual   (A) (A) (A) (A) (A) (A) (A) (A) (A) (A) (A) (A)
                 (A) (A) (A) (A) (A) (A) (A) (A) (A) (A) (A) (A)
                 (A) (A) (A) (A) (A) (A) (A) (A) (A) (A) (A) (A)
                 (A) (A) (A) (A) (A) (A) (A) (A) (A) (A) (A) (A)
                 (A) (A) (A) (A) (A) (A) (A) (A) (A) (A)
 The electronic state is 1-A.
 Alpha  occ. eigenvalues --  -19.04027 -18.94071 -18.93970 -10.16038 -10.14102
 Alpha  occ. eigenvalues --   -1.01578  -0.93285  -0.84912  -0.56985  -0.44863
 Alpha  occ. eigenvalues --   -0.38618  -0.34822  -0.34318  -0.29266  -0.27481
 Alpha  occ. eigenvalues --   -0.20957  -0.13393  -0.12581  -0.11131
 Alpha virt. eigenvalues --    0.24447   0.41343   0.42645   0.53643   0.59996
 Alpha virt. eigenvalues --    0.64109   0.72610   0.81374   0.91003   0.91634
 Alpha virt. eigenvalues --    0.97847   0.99944   1.03014   1.07899   1.11746
 Alpha virt. eigenvalues --    1.14615   1.18348   1.24684   1.25415   1.31329
 Alpha virt. eigenvalues --    1.32970   1.37092   1.40504   1.43685   1.46159
 Alpha virt. eigenvalues --    1.66194   1.71363   1.76742   1.84525   1.88958
 Alpha virt. eigenvalues --    1.95543   2.02015   2.06307   2.13180   2.17220
 Alpha virt. eigenvalues --    2.17956   2.21319   2.23382   2.30120   2.38459
 Alpha virt. eigenvalues --    2.41793   2.44569   2.61370   2.72444   2.73429
 Alpha virt. eigenvalues --    2.90059   2.92745   3.10282   3.20969   3.25592
 Alpha virt. eigenvalues --    3.27734   3.42000   3.50299   4.06272   4.34471
 Alpha virt. eigenvalues --    4.38443   4.67825   4.83572
          Condensed to atoms (all electrons):
               1          2          3          4          5          6
     1  O    8.255852   0.533004  -0.112849  -0.079916   0.005486   0.006415
     2  C    0.533004   4.430478   0.289283   0.449970  -0.085174  -0.061732
     3  C   -0.112849   0.289283   5.051232  -0.124763   0.274578   0.493535
     4  O   -0.079916   0.449970  -0.124763   8.352626   0.027853   0.004196
     5  H    0.005486  -0.085174   0.274578   0.027853   0.783846  -0.058883
     6  O    0.006415  -0.061732   0.493535   0.004196  -0.058883   8.003959
 Mulliken charges:
               1
     1  O   -0.607993
     2  C    0.444171
     3  C    0.128985
     4  O   -0.629967
     5  H    0.052293
     6  O   -0.387490
 Sum of Mulliken charges =  -1.00000
 Mulliken charges with hydrogens summed into heavy atoms:
               1
     1  O   -0.607993
     2  C    0.444171
     3  C    0.181278
     4  O   -0.629967
     6  O   -0.387490
 Electronic spatial extent (au):  <R**2>=            354.6184
 Charge=             -1.0000 electrons
 Dipole moment (field-independent basis, Debye):
    X=              2.5927    Y=             -1.8675    Z=             -0.0131  Tot=              3.1953
 Quadrupole moment (field-independent basis, Debye-Ang):
   XX=            -41.6254   YY=            -35.6650   ZZ=            -26.8433
   XY=             -2.3218   XZ=              0.0009   YZ=             -0.0001
 Traceless Quadrupole moment (field-independent basis, Debye-Ang):
   XX=             -6.9142   YY=             -0.9537   ZZ=              7.8679
   XY=             -2.3218   XZ=              0.0009   YZ=             -0.0001
 Octapole moment (field-independent basis, Debye-Ang**2):
  XXX=             -1.2480  YYY=             -2.5313  ZZZ=              0.0017  XYY=              7.3226
  XXY=              3.4927  XXZ=             -0.0357  XZZ=              0.7999  YZZ=              0.5853
  YYZ=             -0.0053  XYZ=              0.0171
 Hexadecapole moment (field-independent basis, Debye-Ang**3):
 XXXX=           -300.0095 YYYY=           -143.3725 ZZZZ=            -21.1992 XXXY=             -5.6446
 XXXZ=             -0.0239 YYYX=              3.1691 YYYZ=             -0.0017 ZZZX=              0.0033
 ZZZY=              0.0202 XXYY=            -72.4298 XXZZ=            -45.2055 YYZZ=            -25.4568
 XXYZ=              0.0200 YYXZ=              0.0135 ZZXY=              0.5092
 N-N= 1.534809163092D+02 E-N=-1.027861454863D+03  KE= 3.002888233073D+02
 1\1\GINC-NODE67\SP\RwB97X\6-31G(d)\C2H1O3(1-)\YANZ\22-Sep-2023\0\\# 6-
 31g(d) wb97x\\tmpdir/M2_conf_2_5.gjf\\-1,1\O,0,0.,0.,0.\C,0,1.2409,0.,
 0.\C,0,1.94903,0.,1.3844\O,0,2.08382,-0.00404,-0.92505\H,0,3.03286,-0.
 02558,1.34348\O,0,1.35743,-0.00448,2.39601\\Version=ES64L-G16RevA.03\S
 tate=1-A\HF=-302.4334832\RMSD=3.185e-09\Dipole=0.8041691,0.0023677,0.9
 662575\Quadrupole=-0.4901481,5.8495465,-5.3593984,0.0166782,1.4006539,
 0.0017605\PG=C01 [X(C2H1O3)]\\@


 NO MATTER HOW THIN YOU SLICE IT, IT'S STILL BALONEY

                                   -- ALFRED E. SMITH
 Job cpu time:       0 days  0 hours  0 minutes 19.2 seconds.
 Elapsed time:       0 days  0 hours  0 minutes  9.8 seconds.
 File lengths (MBytes):  RWF=      6 Int=      0 D2E=      0 Chk=      1 Scr=      1
 Normal termination of Gaussian 16 at Fri Sep 22 16:32:43 2023.
