 Entering Gaussian System, Link 0=g16
 Initial command:
 /share/apps/gaussian/g16/l1.exe "/tmp/55568.mgr/Gau-358257.inp" -scrdir="/tmp/55568.mgr/"
 Entering Link 1 = /share/apps/gaussian/g16/l1.exe PID=    358258.
  
 Copyright (c) 1988,1990,1992,1993,1995,1998,2003,2009,2016,
            Gaussian, Inc.  All Rights Reserved.
  
 This is part of the Gaussian(R) 16 program.  It is based on
 the Gaussian(R) 09 system (copyright 2009, Gaussian, Inc.),
 the Gaussian(R) 03 system (copyright 2003, Gaussian, Inc.),
 the Gaussian(R) 98 system (copyright 1998, Gaussian, Inc.),
 the Gaussian(R) 94 system (copyright 1995, Gaussian, Inc.),
 the Gaussian 92(TM) system (copyright 1992, Gaussian, Inc.),
 the Gaussian 90(TM) system (copyright 1990, Gaussian, Inc.),
 the Gaussian 88(TM) system (copyright 1988, Gaussian, Inc.),
 the Gaussian 86(TM) system (copyright 1986, Carnegie Mellon
 University), and the Gaussian 82(TM) system (copyright 1983,
 Carnegie Mellon University). Gaussian is a federally registered
 trademark of Gaussian, Inc.
  
 This software contains proprietary and confidential information,
 including trade secrets, belonging to Gaussian, Inc.
  
 This software is provided under written license and may be
 used, copied, transmitted, or stored only in accord with that
 written license.
  
 The following legend is applicable only to US Government
 contracts under FAR:
  
                    RESTRICTED RIGHTS LEGEND
  
 Use, reproduction and disclosure by the US Government is
 subject to restrictions as set forth in subparagraphs (a)
 and (c) of the Commercial Computer Software - Restricted
 Rights clause in FAR 52.227-19.
  
 Gaussian, Inc.
 340 Quinnipiac St., Bldg. 40, Wallingford CT 06492
  
  
 ---------------------------------------------------------------
 Warning -- This program may not be used in any manner that
 competes with the business of Gaussian, Inc. or will provide
 assistance to any competitor of Gaussian, Inc.  The licensee
 of this program is prohibited from giving any competitor of
 Gaussian, Inc. access to this program.  By using this program,
 the user acknowledges that Gaussian, Inc. is engaged in the
 business of creating and licensing software in the field of
 computational chemistry and represents and warrants to the
 licensee that it is not a competitor of Gaussian, Inc. and that
 it will not use this program in any manner prohibited above.
 ---------------------------------------------------------------
  

 Cite this work as:
 Gaussian 16, Revision A.03,
 M. J. Frisch, G. W. Trucks, H. B. Schlegel, G. E. Scuseria, 
 M. A. Robb, J. R. Cheeseman, G. Scalmani, V. Barone, 
 G. A. Petersson, H. Nakatsuji, X. Li, M. Caricato, A. V. Marenich, 
 J. Bloino, B. G. Janesko, R. Gomperts, B. Mennucci, H. P. Hratchian, 
 J. V. Ortiz, A. F. Izmaylov, J. L. Sonnenberg, D. Williams-Young, 
 F. Ding, F. Lipparini, F. Egidi, J. Goings, B. Peng, A. Petrone, 
 T. Henderson, D. Ranasinghe, V. G. Zakrzewski, J. Gao, N. Rega, 
 G. Zheng, W. Liang, M. Hada, M. Ehara, K. Toyota, R. Fukuda, 
 J. Hasegawa, M. Ishida, T. Nakajima, Y. Honda, O. Kitao, H. Nakai, 
 T. Vreven, K. Throssell, J. A. Montgomery, Jr., J. E. Peralta, 
 F. Ogliaro, M. J. Bearpark, J. J. Heyd, E. N. Brothers, K. N. Kudin, 
 V. N. Staroverov, T. A. Keith, R. Kobayashi, J. Normand, 
 K. Raghavachari, A. P. Rendell, J. C. Burant, S. S. Iyengar, 
 J. Tomasi, M. Cossi, J. M. Millam, M. Klene, C. Adamo, R. Cammi, 
 J. W. Ochterski, R. L. Martin, K. Morokuma, O. Farkas, 
 J. B. Foresman, and D. J. Fox, Gaussian, Inc., Wallingford CT, 2016.
 
 ******************************************
 Gaussian 16:  ES64L-G16RevA.03 25-Dec-2016
                22-Sep-2023 
 ******************************************
 %nprocshared=2
 Will use up to    2 processors via shared memory.
 %mem=2GB
 ----------------
 # 6-31g(d) wb97x
 ----------------
 1/38=1,172=1/1;
 2/12=2,17=6,18=5,40=1/2;
 3/5=1,6=6,7=1,11=2,25=1,30=1,74=-57/1,2,3;
 4//1;
 5/5=2,38=5/2;
 6/7=2,8=2,9=2,10=2,28=1/1;
 99/5=1,9=1/99;
 -----------------------
 tmpdir/M2_conf_2_11.gjf
 -----------------------
 Symbolic Z-matrix:
 Charge =  0 Multiplicity = 1
 C                     0.        0.        0. 
 C                     1.5282    0.        0. 
 H                    -0.44507   0.       -0.9894 
 H                    -0.40104  -0.85268   0.55819 
 H                    -0.37635   0.88662   0.53315 
 H                     1.87521   0.34815   1.07659 
 H                     1.93457   0.66106  -0.79062 
 H                     1.93287  -1.01035  -0.12817 
 
                          Input orientation:                          
 ---------------------------------------------------------------------
 Center     Atomic      Atomic             Coordinates (Angstroms)
 Number     Number       Type             X           Y           Z
 ---------------------------------------------------------------------
      1          6           0        0.000000    0.000000    0.000000
      2          6           0        1.528200    0.000000    0.000000
      3          1           0       -0.445070    0.000000   -0.989400
      4          1           0       -0.401040   -0.852680    0.558190
      5          1           0       -0.376350    0.886620    0.533150
      6          1           0        1.875210    0.348150    1.076590
      7          1           0        1.934570    0.661060   -0.790620
      8          1           0        1.932870   -1.010350   -0.128170
 ---------------------------------------------------------------------
                    Distance matrix (angstroms):
                    1          2          3          4          5
     1  C    0.000000
     2  C    1.528200   0.000000
     3  H    1.084896   2.207421   0.000000
     4  H    1.095204   2.181881   1.767494   0.000000
     5  H    1.100901   2.167407   1.763229   1.739655   0.000000
     6  H    2.190129   1.183499   3.126215   2.625271   2.377982
     7  H    2.191949   1.107798   2.477741   3.092858   2.672751
     8  H    2.184770   1.095898   2.723440   2.437844   3.060774
                    6          7          8
     6  H    0.000000
     7  H    1.894178   0.000000
     8  H    1.816671   1.797903   0.000000
 Stoichiometry    C2H6
 Framework group  C1[X(C2H6)]
 Deg. of freedom    18
 Full point group                 C1      NOp   1
 Largest Abelian subgroup         C1      NOp   1
 Largest concise Abelian subgroup C1      NOp   1
                         Standard orientation:                         
 ---------------------------------------------------------------------
 Center     Atomic      Atomic             Coordinates (Angstroms)
 Number     Number       Type             X           Y           Z
 ---------------------------------------------------------------------
      1          6           0        0.760576    0.010181    0.005031
      2          6           0       -0.767596    0.018347    0.000823
      3          1           0        1.210697    0.994204    0.083064
      4          1           0        1.156060   -0.614641    0.812906
      5          1           0        1.136994   -0.454549   -0.919263
      6          1           0       -1.119006   -1.026104   -0.430806
      7          1           0       -1.167827    0.860050   -0.597982
      8          1           0       -1.174796    0.069873    1.016956
 ---------------------------------------------------------------------
 Rotational constants (GHZ):          77.5657991          19.9902796          19.7663932
 Standard basis: 6-31G(d) (6D, 7F)
 There are    42 symmetry adapted cartesian basis functions of A   symmetry.
 There are    42 symmetry adapted basis functions of A   symmetry.
    42 basis functions,    80 primitive gaussians,    42 cartesian basis functions
     9 alpha electrons        9 beta electrons
       nuclear repulsion energy        41.8606688491 Hartrees.
 NAtoms=    8 NActive=    8 NUniq=    8 SFac= 1.00D+00 NAtFMM=   60 NAOKFM=F Big=F
 Integral buffers will be    131072 words long.
 Raffenetti 2 integral format.
 Two-electron integral symmetry is turned on.
 One-electron integrals computed using PRISM.
 NBasis=    42 RedAO= T EigKep=  8.47D-03  NBF=    42
 NBsUse=    42 1.00D-06 EigRej= -1.00D+00 NBFU=    42
 ExpMin= 1.61D-01 ExpMax= 3.05D+03 ExpMxC= 4.57D+02 IAcc=3 IRadAn=         5 AccDes= 0.00D+00
 Harris functional with IExCor= 4538 and IRadAn=       5 diagonalized for initial guess.
 HarFok:  IExCor= 4538 AccDes= 0.00D+00 IRadAn=         5 IDoV= 1 UseB2=F ITyADJ=14
 ICtDFT=  3500011 ScaDFX=  1.000000  1.000000  1.000000  1.000000
 FoFCou: FMM=F IPFlag=           0 FMFlag=      100000 FMFlg1=           0
         NFxFlg=           0 DoJE=T BraDBF=F KetDBF=T FulRan=T
         wScrn=  0.000000 ICntrl=       500 IOpCl=  0 I1Cent=   200000004 NGrid=           0
         NMat0=    1 NMatS0=      1 NMatT0=    0 NMatD0=    1 NMtDS0=    0 NMtDT0=    0
 Petite list used in FoFCou.
 Keep R1 ints in memory in canonical form, NReq=2543288.
 Requested convergence on RMS density matrix=1.00D-08 within 128 cycles.
 Requested convergence on MAX density matrix=1.00D-06.
 Requested convergence on             energy=1.00D-06.
 No special actions if energy rises.
 Integral accuracy reduced to 1.0D-05 until final iterations.
 Initial convergence to 1.0D-05 achieved.  Increase integral accuracy.
 SCF Done:  E(RwB97X) =  -79.7948521414     A.U. after   12 cycles
            NFock= 12  Conv=0.20D-08     -V/T= 2.0120

 **********************************************************************

            Population analysis using the SCF density.

 **********************************************************************

 Orbital symmetries:
       Occupied  (A) (A) (A) (A) (A) (A) (A) (A) (A)
       Virtual   (A) (A) (A) (A) (A) (A) (A) (A) (A) (A) (A) (A)
                 (A) (A) (A) (A) (A) (A) (A) (A) (A) (A) (A) (A)
                 (A) (A) (A) (A) (A) (A) (A) (A) (A)
 The electronic state is 1-A.
 Alpha  occ. eigenvalues --  -10.26601 -10.25410  -0.87687  -0.73012  -0.54372
 Alpha  occ. eigenvalues --   -0.53585  -0.46599  -0.44359  -0.43137
 Alpha virt. eigenvalues --    0.19334   0.23679   0.24931   0.25312   0.29668
 Alpha virt. eigenvalues --    0.30788   0.33932   0.61833   0.64657   0.65902
 Alpha virt. eigenvalues --    0.74872   0.76547   0.78807   0.96215   0.99463
 Alpha virt. eigenvalues --    1.01181   1.03148   1.04298   1.09110   1.16454
 Alpha virt. eigenvalues --    1.54634   1.61660   1.62358   2.03996   2.08993
 Alpha virt. eigenvalues --    2.11280   2.29532   2.34224   2.44372   2.48703
 Alpha virt. eigenvalues --    2.69954   4.26209   4.49153
          Condensed to atoms (all electrons):
               1          2          3          4          5          6
     1  C    5.061718   0.346641   0.389479   0.388831   0.390212  -0.038124
     2  C    0.346641   5.056735  -0.031341  -0.033343  -0.035476   0.380284
     3  H    0.389479  -0.031341   0.538896  -0.027284  -0.028753   0.003748
     4  H    0.388831  -0.033343  -0.027284   0.549728  -0.031932  -0.000382
     5  H    0.390212  -0.035476  -0.028753  -0.031932   0.554947  -0.007573
     6  H   -0.038124   0.380284   0.003748  -0.000382  -0.007573   0.577699
     7  H   -0.034507   0.387116  -0.004729   0.003764  -0.000892  -0.021121
     8  H   -0.034665   0.387904  -0.000553  -0.006062   0.004082  -0.029431
               7          8
     1  C   -0.034507  -0.034665
     2  C    0.387116   0.387904
     3  H   -0.004729  -0.000553
     4  H    0.003764  -0.006062
     5  H   -0.000892   0.004082
     6  H   -0.021121  -0.029431
     7  H    0.538743  -0.027930
     8  H   -0.027930   0.545604
 Mulliken charges:
               1
     1  C   -0.469585
     2  C   -0.458521
     3  H    0.160536
     4  H    0.156679
     5  H    0.155385
     6  H    0.134900
     7  H    0.159555
     8  H    0.161050
 Sum of Mulliken charges =  -0.00000
 Mulliken charges with hydrogens summed into heavy atoms:
               1
     1  C    0.003016
     2  C   -0.003016
 Electronic spatial extent (au):  <R**2>=            110.3405
 Charge=             -0.0000 electrons
 Dipole moment (field-independent basis, Debye):
    X=              0.0606    Y=              0.0189    Z=              0.0367  Tot=              0.0734
 Quadrupole moment (field-independent basis, Debye-Ang):
   XX=            -15.3987   YY=            -14.5912   ZZ=            -14.8624
   XY=             -0.0776   XZ=             -0.0732   YZ=             -0.0801
 Traceless Quadrupole moment (field-independent basis, Debye-Ang):
   XX=             -0.4479   YY=              0.3596   ZZ=              0.0884
   XY=             -0.0776   XZ=             -0.0732   YZ=             -0.0801
 Octapole moment (field-independent basis, Debye-Ang**2):
  XXX=              0.7056  YYY=              0.4198  ZZZ=              0.5457  XYY=              0.0809
  XXY=              0.2865  XXZ=              0.2210  XZZ=              0.0103  YZZ=             -0.2908
  YYZ=             -0.4368  XYZ=              0.1023
 Hexadecapole moment (field-independent basis, Debye-Ang**3):
 XXXX=            -93.5262 YYYY=            -29.5737 ZZZZ=            -28.6845 XXXY=             -0.3077
 XXXZ=             -0.2948 YYYX=              0.6458 YYYZ=             -0.1059 ZZZX=             -1.0468
 ZZZY=             -0.1764 XXYY=            -19.0820 XXZZ=            -19.2693 YYZZ=             -9.6764
 XXYZ=             -0.2108 YYXZ=              0.8720 ZZXY=             -0.9185
 N-N= 4.186066884911D+01 E-N=-2.673812183838D+02  KE= 7.884966727847D+01
 1\1\GINC-NODE67\SP\RwB97X\6-31G(d)\C2H6\YANZ\22-Sep-2023\0\\# 6-31g(d)
  wb97x\\tmpdir/M2_conf_2_11.gjf\\0,1\C,0,0.,0.,0.\C,0,1.5282,0.,0.\H,0
 ,-0.44507,0.,-0.9894\H,0,-0.40104,-0.85268,0.55819\H,0,-0.37635,0.8866
 2,0.53315\H,0,1.87521,0.34815,1.07659\H,0,1.93457,0.66106,-0.79062\H,0
 ,1.93287,-1.01035,-0.12817\\Version=ES64L-G16RevA.03\State=1-A\HF=-79.
 7948521\RMSD=1.967e-09\Dipole=-0.0238603,-0.0137418,-0.0086601\Quadrup
 ole=-0.3326823,0.0764381,0.2562442,-0.0480876,-0.0650186,-0.0745085\PG
 =C01 [X(C2H6)]\\@


      THE ONE-EYED VIEW OF OUR UNIVERSE SAYS YOU MUST NOT LOOK
      FAR AFIELD FOR PROBLEMS.  SUCH PROBLEMS MAY NEVER ARRIVE. 
      INSTEAD, TEND TO THE WOLF WITHIN YOUR FENCES.
      THE PACKS RANGING OUTSIDE MAY NOT EVEN EXIST.

                              -- THE AZHAR BOOK SHAMRA I:4
                                 CHILDREN OF DUNE, BY FRANK HERBERT
 Job cpu time:       0 days  0 hours  0 minutes 11.1 seconds.
 Elapsed time:       0 days  0 hours  0 minutes  5.5 seconds.
 File lengths (MBytes):  RWF=      6 Int=      0 D2E=      0 Chk=      1 Scr=      1
 Normal termination of Gaussian 16 at Fri Sep 22 16:32:44 2023.
