 Entering Gaussian System, Link 0=g16
 Initial command:
 /share/apps/gaussian/g16/l1.exe "/tmp/55568.mgr/Gau-356677.inp" -scrdir="/tmp/55568.mgr/"
 Entering Link 1 = /share/apps/gaussian/g16/l1.exe PID=    356678.
  
 Copyright (c) 1988,1990,1992,1993,1995,1998,2003,2009,2016,
            Gaussian, Inc.  All Rights Reserved.
  
 This is part of the Gaussian(R) 16 program.  It is based on
 the Gaussian(R) 09 system (copyright 2009, Gaussian, Inc.),
 the Gaussian(R) 03 system (copyright 2003, Gaussian, Inc.),
 the Gaussian(R) 98 system (copyright 1998, Gaussian, Inc.),
 the Gaussian(R) 94 system (copyright 1995, Gaussian, Inc.),
 the Gaussian 92(TM) system (copyright 1992, Gaussian, Inc.),
 the Gaussian 90(TM) system (copyright 1990, Gaussian, Inc.),
 the Gaussian 88(TM) system (copyright 1988, Gaussian, Inc.),
 the Gaussian 86(TM) system (copyright 1986, Carnegie Mellon
 University), and the Gaussian 82(TM) system (copyright 1983,
 Carnegie Mellon University). Gaussian is a federally registered
 trademark of Gaussian, Inc.
  
 This software contains proprietary and confidential information,
 including trade secrets, belonging to Gaussian, Inc.
  
 This software is provided under written license and may be
 used, copied, transmitted, or stored only in accord with that
 written license.
  
 The following legend is applicable only to US Government
 contracts under FAR:
  
                    RESTRICTED RIGHTS LEGEND
  
 Use, reproduction and disclosure by the US Government is
 subject to restrictions as set forth in subparagraphs (a)
 and (c) of the Commercial Computer Software - Restricted
 Rights clause in FAR 52.227-19.
  
 Gaussian, Inc.
 340 Quinnipiac St., Bldg. 40, Wallingford CT 06492
  
  
 ---------------------------------------------------------------
 Warning -- This program may not be used in any manner that
 competes with the business of Gaussian, Inc. or will provide
 assistance to any competitor of Gaussian, Inc.  The licensee
 of this program is prohibited from giving any competitor of
 Gaussian, Inc. access to this program.  By using this program,
 the user acknowledges that Gaussian, Inc. is engaged in the
 business of creating and licensing software in the field of
 computational chemistry and represents and warrants to the
 licensee that it is not a competitor of Gaussian, Inc. and that
 it will not use this program in any manner prohibited above.
 ---------------------------------------------------------------
  

 Cite this work as:
 Gaussian 16, Revision A.03,
 M. J. Frisch, G. W. Trucks, H. B. Schlegel, G. E. Scuseria, 
 M. A. Robb, J. R. Cheeseman, G. Scalmani, V. Barone, 
 G. A. Petersson, H. Nakatsuji, X. Li, M. Caricato, A. V. Marenich, 
 J. Bloino, B. G. Janesko, R. Gomperts, B. Mennucci, H. P. Hratchian, 
 J. V. Ortiz, A. F. Izmaylov, J. L. Sonnenberg, D. Williams-Young, 
 F. Ding, F. Lipparini, F. Egidi, J. Goings, B. Peng, A. Petrone, 
 T. Henderson, D. Ranasinghe, V. G. Zakrzewski, J. Gao, N. Rega, 
 G. Zheng, W. Liang, M. Hada, M. Ehara, K. Toyota, R. Fukuda, 
 J. Hasegawa, M. Ishida, T. Nakajima, Y. Honda, O. Kitao, H. Nakai, 
 T. Vreven, K. Throssell, J. A. Montgomery, Jr., J. E. Peralta, 
 F. Ogliaro, M. J. Bearpark, J. J. Heyd, E. N. Brothers, K. N. Kudin, 
 V. N. Staroverov, T. A. Keith, R. Kobayashi, J. Normand, 
 K. Raghavachari, A. P. Rendell, J. C. Burant, S. S. Iyengar, 
 J. Tomasi, M. Cossi, J. M. Millam, M. Klene, C. Adamo, R. Cammi, 
 J. W. Ochterski, R. L. Martin, K. Morokuma, O. Farkas, 
 J. B. Foresman, and D. J. Fox, Gaussian, Inc., Wallingford CT, 2016.
 
 ******************************************
 Gaussian 16:  ES64L-G16RevA.03 25-Dec-2016
                22-Sep-2023 
 ******************************************
 %nprocshared=2
 Will use up to    2 processors via shared memory.
 %mem=2GB
 ----------------
 # 6-31g(d) wb97x
 ----------------
 1/38=1,172=1/1;
 2/12=2,17=6,18=5,40=1/2;
 3/5=1,6=6,7=1,11=2,25=1,30=1,74=-57/1,2,3;
 4//1;
 5/5=2,38=5/2;
 6/7=2,8=2,9=2,10=2,28=1/1;
 99/5=1,9=1/99;
 -----------------------
 tmpdir/M2_conf_1_60.gjf
 -----------------------
 Symbolic Z-matrix:
 Charge =  0 Multiplicity = 1
 O                     0.        0.        0. 
 C                     1.4231    0.        0. 
 H                     1.77282   0.        1.04946 
 H                    -0.43943   0.43384   0.76587 
 H                     1.71136  -0.993    -0.43507 
 H                     1.87686   0.82029  -0.5481 
 
                          Input orientation:                          
 ---------------------------------------------------------------------
 Center     Atomic      Atomic             Coordinates (Angstroms)
 Number     Number       Type             X           Y           Z
 ---------------------------------------------------------------------
      1          8           0        0.000000    0.000000    0.000000
      2          6           0        1.423100    0.000000    0.000000
      3          1           0        1.772820    0.000000    1.049460
      4          1           0       -0.439430    0.433840    0.765870
      5          1           0        1.711360   -0.993000   -0.435070
      6          1           0        1.876860    0.820290   -0.548100
 ---------------------------------------------------------------------
                    Distance matrix (angstroms):
                    1          2          3          4          5
     1  O    0.000000
     2  C    1.423100   0.000000
     3  H    2.060159   1.106196   0.000000
     4  H    0.983805   2.060047   2.272155   0.000000
     5  H    2.025855   1.121797   1.787080   2.846757   0.000000
     6  H    2.120352   1.085904   1.798860   2.690922   1.824332
                    6
     6  H    0.000000
 Stoichiometry    CH4O
 Framework group  C1[X(CH4O)]
 Deg. of freedom    12
 Full point group                 C1      NOp   1
 Largest Abelian subgroup         C1      NOp   1
 Largest concise Abelian subgroup C1      NOp   1
                         Standard orientation:                         
 ---------------------------------------------------------------------
 Center     Atomic      Atomic             Coordinates (Angstroms)
 Number     Number       Type             X           Y           Z
 ---------------------------------------------------------------------
      1          8           0        0.738618   -0.125839    0.012050
      2          6           0       -0.676478    0.024886    0.012271
      3          1           0       -0.930017    0.947276   -0.543233
      4          1           0        1.268712    0.702093   -0.025387
      5          1           0       -1.057980   -0.834318   -0.599818
      6          1           0       -1.130791    0.042342    0.998416
 ---------------------------------------------------------------------
 Rotational constants (GHZ):         127.1731910          24.3800168          23.6531926
 Standard basis: 6-31G(d) (6D, 7F)
 There are    38 symmetry adapted cartesian basis functions of A   symmetry.
 There are    38 symmetry adapted basis functions of A   symmetry.
    38 basis functions,    72 primitive gaussians,    38 cartesian basis functions
     9 alpha electrons        9 beta electrons
       nuclear repulsion energy        39.9545030857 Hartrees.
 NAtoms=    6 NActive=    6 NUniq=    6 SFac= 1.00D+00 NAtFMM=   60 NAOKFM=F Big=F
 Integral buffers will be    131072 words long.
 Raffenetti 2 integral format.
 Two-electron integral symmetry is turned on.
 One-electron integrals computed using PRISM.
 NBasis=    38 RedAO= T EigKep=  9.75D-03  NBF=    38
 NBsUse=    38 1.00D-06 EigRej= -1.00D+00 NBFU=    38
 ExpMin= 1.61D-01 ExpMax= 5.48D+03 ExpMxC= 8.25D+02 IAcc=3 IRadAn=         5 AccDes= 0.00D+00
 Harris functional with IExCor= 4538 and IRadAn=       5 diagonalized for initial guess.
 HarFok:  IExCor= 4538 AccDes= 0.00D+00 IRadAn=         5 IDoV= 1 UseB2=F ITyADJ=14
 ICtDFT=  3500011 ScaDFX=  1.000000  1.000000  1.000000  1.000000
 FoFCou: FMM=F IPFlag=           0 FMFlag=      100000 FMFlg1=           0
         NFxFlg=           0 DoJE=T BraDBF=F KetDBF=T FulRan=T
         wScrn=  0.000000 ICntrl=       500 IOpCl=  0 I1Cent=   200000004 NGrid=           0
         NMat0=    1 NMatS0=      1 NMatT0=    0 NMatD0=    1 NMtDS0=    0 NMtDT0=    0
 Petite list used in FoFCou.
 Keep R1 ints in memory in canonical form, NReq=2276072.
 Requested convergence on RMS density matrix=1.00D-08 within 128 cycles.
 Requested convergence on MAX density matrix=1.00D-06.
 Requested convergence on             energy=1.00D-06.
 No special actions if energy rises.
 Integral accuracy reduced to 1.0D-05 until final iterations.
 Initial convergence to 1.0D-05 achieved.  Increase integral accuracy.
 SCF Done:  E(RwB97X) =  -115.674577995     A.U. after   13 cycles
            NFock= 13  Conv=0.32D-08     -V/T= 2.0095

 **********************************************************************

            Population analysis using the SCF density.

 **********************************************************************

 Orbital symmetries:
       Occupied  (A) (A) (A) (A) (A) (A) (A) (A) (A)
       Virtual   (A) (A) (A) (A) (A) (A) (A) (A) (A) (A) (A) (A)
                 (A) (A) (A) (A) (A) (A) (A) (A) (A) (A) (A) (A)
                 (A) (A) (A) (A) (A)
 The electronic state is 1-A.
 Alpha  occ. eigenvalues --  -19.20168 -10.30982  -1.12358  -0.80172  -0.60863
 Alpha  occ. eigenvalues --   -0.54765  -0.52431  -0.41579  -0.36592
 Alpha virt. eigenvalues --    0.17218   0.22671   0.26054   0.28334   0.31222
 Alpha virt. eigenvalues --    0.64586   0.66801   0.68928   0.90791   0.96866
 Alpha virt. eigenvalues --    0.97774   1.01624   1.06211   1.09739   1.12480
 Alpha virt. eigenvalues --    1.25094   1.56901   1.60838   1.70036   1.87630
 Alpha virt. eigenvalues --    2.14438   2.20383   2.28815   2.34984   2.50199
 Alpha virt. eigenvalues --    2.63433   2.89786   3.82771   4.34612
          Condensed to atoms (all electrons):
               1          2          3          4          5          6
     1  O    8.258991   0.250014  -0.032475   0.247632  -0.044009  -0.036655
     2  C    0.250014   4.841921   0.378821  -0.024113   0.391034   0.375550
     3  H   -0.032475   0.378821   0.595059  -0.008958  -0.029653  -0.038872
     4  H    0.247632  -0.024113  -0.008958   0.376510   0.004890   0.000667
     5  H   -0.044009   0.391034  -0.029653   0.004890   0.552863  -0.038498
     6  H   -0.036655   0.375550  -0.038872   0.000667  -0.038498   0.583904
 Mulliken charges:
               1
     1  O   -0.643499
     2  C   -0.213227
     3  H    0.136078
     4  H    0.403372
     5  H    0.163373
     6  H    0.153903
 Sum of Mulliken charges =  -0.00000
 Mulliken charges with hydrogens summed into heavy atoms:
               1
     1  O   -0.240127
     2  C    0.240127
 Electronic spatial extent (au):  <R**2>=             84.6223
 Charge=             -0.0000 electrons
 Dipole moment (field-independent basis, Debye):
    X=             -0.6121    Y=              1.6113    Z=             -0.1163  Tot=              1.7276
 Quadrupole moment (field-independent basis, Debye-Ang):
   XX=            -11.9431   YY=            -12.2993   ZZ=            -13.4191
   XY=              2.3221   XZ=             -0.1350   YZ=              0.0237
 Traceless Quadrupole moment (field-independent basis, Debye-Ang):
   XX=              0.6107   YY=              0.2546   ZZ=             -0.8653
   XY=              2.3221   XZ=             -0.1350   YZ=              0.0237
 Octapole moment (field-independent basis, Debye-Ang**2):
  XXX=              5.9464  YYY=              1.0504  ZZZ=              0.3663  XYY=              1.9627
  XXY=              2.7051  XXZ=             -0.0374  XZZ=              0.3396  YZZ=              0.1183
  YYZ=             -0.5761  XYZ=             -0.1744
 Hexadecapole moment (field-independent basis, Debye-Ang**3):
 XXXX=            -58.5346 YYYY=            -19.7297 ZZZZ=            -18.8833 XXXY=              4.3380
 XXXZ=             -0.4573 YYYX=              2.0605 YYYZ=             -0.0246 ZZZX=             -0.5892
 ZZZY=              0.0995 XXYY=            -12.3954 XXZZ=            -13.4695 YYZZ=             -6.4091
 XXYZ=              0.1353 YYXZ=              0.5401 ZZXY=              0.4789
 N-N= 3.995450308573D+01 E-N=-3.509404301213D+02  KE= 1.145815694282D+02
 1\1\GINC-NODE67\SP\RwB97X\6-31G(d)\C1H4O1\YANZ\22-Sep-2023\0\\# 6-31g(
 d) wb97x\\tmpdir/M2_conf_1_60.gjf\\0,1\O,0,0.,0.,0.\C,0,1.4231,0.,0.\H
 ,0,1.77282,0.,1.04946\H,0,-0.43943,0.43384,0.76587\H,0,1.71136,-0.993,
 -0.43507\H,0,1.87686,0.82029,-0.5481\\Version=ES64L-G16RevA.03\State=1
 -A\HF=-115.674578\RMSD=3.160e-09\Dipole=0.306617,0.2813483,0.5374011\Q
 uadrupole=0.0874563,-0.3008648,0.2134085,-0.8220423,-1.5092599,0.54172
 05\PG=C01 [X(C1H4O1)]\\@


 KEEP CLOSE TO NATURES HEART, YOURSELF;
 AND BREAK CLEAR AWAY, ONCE IN A WHILE, AND
 CLIMB A MOUNTAIN OR SPEND A WEEK IN THE
 WOODS.  WASH YOUR SPIRIT CLEAN...
                                         -- JOHN MUIR
 Job cpu time:       0 days  0 hours  0 minutes  8.3 seconds.
 Elapsed time:       0 days  0 hours  0 minutes  4.2 seconds.
 File lengths (MBytes):  RWF=      6 Int=      0 D2E=      0 Chk=      1 Scr=      1
 Normal termination of Gaussian 16 at Fri Sep 22 16:31:42 2023.
