 Entering Gaussian System, Link 0=g16
 Initial command:
 /share/apps/gaussian/g16/l1.exe "/tmp/55568.mgr/Gau-358473.inp" -scrdir="/tmp/55568.mgr/"
 Entering Link 1 = /share/apps/gaussian/g16/l1.exe PID=    358474.
  
 Copyright (c) 1988,1990,1992,1993,1995,1998,2003,2009,2016,
            Gaussian, Inc.  All Rights Reserved.
  
 This is part of the Gaussian(R) 16 program.  It is based on
 the Gaussian(R) 09 system (copyright 2009, Gaussian, Inc.),
 the Gaussian(R) 03 system (copyright 2003, Gaussian, Inc.),
 the Gaussian(R) 98 system (copyright 1998, Gaussian, Inc.),
 the Gaussian(R) 94 system (copyright 1995, Gaussian, Inc.),
 the Gaussian 92(TM) system (copyright 1992, Gaussian, Inc.),
 the Gaussian 90(TM) system (copyright 1990, Gaussian, Inc.),
 the Gaussian 88(TM) system (copyright 1988, Gaussian, Inc.),
 the Gaussian 86(TM) system (copyright 1986, Carnegie Mellon
 University), and the Gaussian 82(TM) system (copyright 1983,
 Carnegie Mellon University). Gaussian is a federally registered
 trademark of Gaussian, Inc.
  
 This software contains proprietary and confidential information,
 including trade secrets, belonging to Gaussian, Inc.
  
 This software is provided under written license and may be
 used, copied, transmitted, or stored only in accord with that
 written license.
  
 The following legend is applicable only to US Government
 contracts under FAR:
  
                    RESTRICTED RIGHTS LEGEND
  
 Use, reproduction and disclosure by the US Government is
 subject to restrictions as set forth in subparagraphs (a)
 and (c) of the Commercial Computer Software - Restricted
 Rights clause in FAR 52.227-19.
  
 Gaussian, Inc.
 340 Quinnipiac St., Bldg. 40, Wallingford CT 06492
  
  
 ---------------------------------------------------------------
 Warning -- This program may not be used in any manner that
 competes with the business of Gaussian, Inc. or will provide
 assistance to any competitor of Gaussian, Inc.  The licensee
 of this program is prohibited from giving any competitor of
 Gaussian, Inc. access to this program.  By using this program,
 the user acknowledges that Gaussian, Inc. is engaged in the
 business of creating and licensing software in the field of
 computational chemistry and represents and warrants to the
 licensee that it is not a competitor of Gaussian, Inc. and that
 it will not use this program in any manner prohibited above.
 ---------------------------------------------------------------
  

 Cite this work as:
 Gaussian 16, Revision A.03,
 M. J. Frisch, G. W. Trucks, H. B. Schlegel, G. E. Scuseria, 
 M. A. Robb, J. R. Cheeseman, G. Scalmani, V. Barone, 
 G. A. Petersson, H. Nakatsuji, X. Li, M. Caricato, A. V. Marenich, 
 J. Bloino, B. G. Janesko, R. Gomperts, B. Mennucci, H. P. Hratchian, 
 J. V. Ortiz, A. F. Izmaylov, J. L. Sonnenberg, D. Williams-Young, 
 F. Ding, F. Lipparini, F. Egidi, J. Goings, B. Peng, A. Petrone, 
 T. Henderson, D. Ranasinghe, V. G. Zakrzewski, J. Gao, N. Rega, 
 G. Zheng, W. Liang, M. Hada, M. Ehara, K. Toyota, R. Fukuda, 
 J. Hasegawa, M. Ishida, T. Nakajima, Y. Honda, O. Kitao, H. Nakai, 
 T. Vreven, K. Throssell, J. A. Montgomery, Jr., J. E. Peralta, 
 F. Ogliaro, M. J. Bearpark, J. J. Heyd, E. N. Brothers, K. N. Kudin, 
 V. N. Staroverov, T. A. Keith, R. Kobayashi, J. Normand, 
 K. Raghavachari, A. P. Rendell, J. C. Burant, S. S. Iyengar, 
 J. Tomasi, M. Cossi, J. M. Millam, M. Klene, C. Adamo, R. Cammi, 
 J. W. Ochterski, R. L. Martin, K. Morokuma, O. Farkas, 
 J. B. Foresman, and D. J. Fox, Gaussian, Inc., Wallingford CT, 2016.
 
 ******************************************
 Gaussian 16:  ES64L-G16RevA.03 25-Dec-2016
                22-Sep-2023 
 ******************************************
 %nprocshared=2
 Will use up to    2 processors via shared memory.
 %mem=2GB
 ----------------
 # 6-31g(d) wb97x
 ----------------
 1/38=1,172=1/1;
 2/12=2,17=6,18=5,40=1/2;
 3/5=1,6=6,7=1,11=2,25=1,30=1,74=-57/1,2,3;
 4//1;
 5/5=2,38=5/2;
 6/7=2,8=2,9=2,10=2,28=1/1;
 99/5=1,9=1/99;
 -----------------------
 tmpdir/M2_conf_2_64.gjf
 -----------------------
 Symbolic Z-matrix:
 Charge =  0 Multiplicity = 1
 C                     0.        0.        0. 
 C                     1.5001    0.        0. 
 H                     1.97712   0.        0.97674 
 H                    -0.41005   0.37964  -0.97271 
 H                    -0.48828   0.67811   0.81679 
 H                    -0.39119  -1.02575   0.13595 
 O                     2.14555  -0.0425   -0.97721 
 
                          Input orientation:                          
 ---------------------------------------------------------------------
 Center     Atomic      Atomic             Coordinates (Angstroms)
 Number     Number       Type             X           Y           Z
 ---------------------------------------------------------------------
      1          6           0        0.000000    0.000000    0.000000
      2          6           0        1.500100    0.000000    0.000000
      3          1           0        1.977120    0.000000    0.976740
      4          1           0       -0.410050    0.379640   -0.972710
      5          1           0       -0.488280    0.678110    0.816790
      6          1           0       -0.391190   -1.025750    0.135950
      7          8           0        2.145550   -0.042500   -0.977210
 ---------------------------------------------------------------------
                    Distance matrix (angstroms):
                    1          2          3          4          5
     1  C    0.000000
     2  C    1.500100   0.000000
     3  H    2.205227   1.087000   0.000000
     4  H    1.121799   2.176916   3.105328   0.000000
     5  H    1.168502   2.254026   2.561955   1.815906   0.000000
     6  H    1.106198   2.155835   2.714403   1.790141   1.837419
     7  O    2.357993   1.171901   1.961656   2.590234   3.267227
                    6          7
     6  H    0.000000
     7  O    2.939550   0.000000
 Stoichiometry    C2H4O
 Framework group  C1[X(C2H4O)]
 Deg. of freedom    15
 Full point group                 C1      NOp   1
 Largest Abelian subgroup         C1      NOp   1
 Largest concise Abelian subgroup C1      NOp   1
                         Standard orientation:                         
 ---------------------------------------------------------------------
 Center     Atomic      Atomic             Coordinates (Angstroms)
 Number     Number       Type             X           Y           Z
 ---------------------------------------------------------------------
      1          6           0       -1.147898   -0.126491    0.007861
      2          6           0        0.255900    0.402111   -0.007356
      3          1           0        0.358583    1.483912    0.019707
      4          1           0       -1.197301   -1.170675   -0.399168
      5          1           0       -1.906498    0.483836   -0.638221
      6          1           0       -1.540275   -0.164852    1.041420
      7          8           0        1.204685   -0.285743   -0.003346
 ---------------------------------------------------------------------
 Rotational constants (GHZ):          56.6363316          10.3706652           9.3031944
 Standard basis: 6-31G(d) (6D, 7F)
 There are    53 symmetry adapted cartesian basis functions of A   symmetry.
 There are    53 symmetry adapted basis functions of A   symmetry.
    53 basis functions,   100 primitive gaussians,    53 cartesian basis functions
    12 alpha electrons       12 beta electrons
       nuclear repulsion energy        70.2398179196 Hartrees.
 NAtoms=    7 NActive=    7 NUniq=    7 SFac= 1.00D+00 NAtFMM=   60 NAOKFM=F Big=F
 Integral buffers will be    131072 words long.
 Raffenetti 2 integral format.
 Two-electron integral symmetry is turned on.
 One-electron integrals computed using PRISM.
 NBasis=    53 RedAO= T EigKep=  5.39D-03  NBF=    53
 NBsUse=    53 1.00D-06 EigRej= -1.00D+00 NBFU=    53
 ExpMin= 1.61D-01 ExpMax= 5.48D+03 ExpMxC= 8.25D+02 IAcc=3 IRadAn=         5 AccDes= 0.00D+00
 Harris functional with IExCor= 4538 and IRadAn=       5 diagonalized for initial guess.
 HarFok:  IExCor= 4538 AccDes= 0.00D+00 IRadAn=         5 IDoV= 1 UseB2=F ITyADJ=14
 ICtDFT=  3500011 ScaDFX=  1.000000  1.000000  1.000000  1.000000
 FoFCou: FMM=F IPFlag=           0 FMFlag=      100000 FMFlg1=           0
         NFxFlg=           0 DoJE=T BraDBF=F KetDBF=T FulRan=T
         wScrn=  0.000000 ICntrl=       500 IOpCl=  0 I1Cent=   200000004 NGrid=           0
         NMat0=    1 NMatS0=      1 NMatT0=    0 NMatD0=    1 NMtDS0=    0 NMtDT0=    0
 Petite list used in FoFCou.
 Keep R1 ints in memory in canonical form, NReq=3800804.
 Requested convergence on RMS density matrix=1.00D-08 within 128 cycles.
 Requested convergence on MAX density matrix=1.00D-06.
 Requested convergence on             energy=1.00D-06.
 No special actions if energy rises.
 Integral accuracy reduced to 1.0D-05 until final iterations.
 Initial convergence to 1.0D-05 achieved.  Increase integral accuracy.
 SCF Done:  E(RwB97X) =  -153.778223530     A.U. after   15 cycles
            NFock= 15  Conv=0.46D-08     -V/T= 2.0087

 **********************************************************************

            Population analysis using the SCF density.

 **********************************************************************

 Orbital symmetries:
       Occupied  (A) (A) (A) (A) (A) (A) (A) (A) (A) (A) (A) (A)
       Virtual   (A) (A) (A) (A) (A) (A) (A) (A) (A) (A) (A) (A)
                 (A) (A) (A) (A) (A) (A) (A) (A) (A) (A) (A) (A)
                 (A) (A) (A) (A) (A) (A) (A) (A) (A) (A) (A) (A)
                 (A) (A) (A) (A) (A)
 The electronic state is 1-A.
 Alpha  occ. eigenvalues --  -19.21657 -10.35988 -10.28584  -1.19440  -0.87290
 Alpha  occ. eigenvalues --   -0.70231  -0.59354  -0.55601  -0.54897  -0.48860
 Alpha  occ. eigenvalues --   -0.47384  -0.35642
 Alpha virt. eigenvalues --    0.08274   0.19927   0.22291   0.25111   0.25991
 Alpha virt. eigenvalues --    0.36096   0.38457   0.62968   0.64816   0.70168
 Alpha virt. eigenvalues --    0.72249   0.78698   0.85450   0.86264   0.94147
 Alpha virt. eigenvalues --    0.96834   0.98531   1.01801   1.03523   1.10357
 Alpha virt. eigenvalues --    1.19798   1.33312   1.51143   1.59455   1.63951
 Alpha virt. eigenvalues --    1.80715   1.91231   1.93728   1.95445   2.14051
 Alpha virt. eigenvalues --    2.20716   2.25165   2.38405   2.49070   2.68759
 Alpha virt. eigenvalues --    2.73579   3.00078   3.10712   3.95352   4.19480
 Alpha virt. eigenvalues --    4.45612
          Condensed to atoms (all electrons):
               1          2          3          4          5          6
     1  C    5.390864   0.307101  -0.112978   0.360907   0.345450   0.361379
     2  C    0.307101   4.522003   0.366102  -0.023412  -0.015140  -0.019748
     3  H   -0.112978   0.366102   0.677547   0.004494   0.003845   0.002976
     4  H    0.360907  -0.023412   0.004494   0.503593  -0.023457  -0.018633
     5  H    0.345450  -0.015140   0.003845  -0.023457   0.545538  -0.020619
     6  H    0.361379  -0.019748   0.002976  -0.018633  -0.020619   0.499038
     7  O   -0.084821   0.611904  -0.060305   0.003955   0.002303  -0.000271
               7
     1  C   -0.084821
     2  C    0.611904
     3  H   -0.060305
     4  H    0.003955
     5  H    0.002303
     6  H   -0.000271
     7  O    7.879351
 Mulliken charges:
               1
     1  C   -0.567902
     2  C    0.251190
     3  H    0.118319
     4  H    0.192552
     5  H    0.162079
     6  H    0.195878
     7  O   -0.352116
 Sum of Mulliken charges =  -0.00000
 Mulliken charges with hydrogens summed into heavy atoms:
               1
     1  C   -0.017392
     2  C    0.369509
     7  O   -0.352116
 Electronic spatial extent (au):  <R**2>=            165.3564
 Charge=              0.0000 electrons
 Dipole moment (field-independent basis, Debye):
    X=             -2.2342    Y=              1.0547    Z=              0.0877  Tot=              2.4722
 Quadrupole moment (field-independent basis, Debye-Ang):
   XX=            -20.4505   YY=            -17.8566   ZZ=            -17.5094
   XY=              1.1129   XZ=             -0.0727   YZ=             -0.0033
 Traceless Quadrupole moment (field-independent basis, Debye-Ang):
   XX=             -1.8450   YY=              0.7489   ZZ=              1.0961
   XY=              1.1129   XZ=             -0.0727   YZ=             -0.0033
 Octapole moment (field-independent basis, Debye-Ang**2):
  XXX=              0.0459  YYY=             -0.7488  ZZZ=              0.8670  XYY=              1.2280
  XXY=              0.5872  XXZ=             -0.0571  XZZ=              0.9921  YZZ=             -0.3520
  YYZ=             -0.4755  XYZ=              0.1934
 Hexadecapole moment (field-independent basis, Debye-Ang**3):
 XXXX=           -145.7320 YYYY=            -40.6607 ZZZZ=            -22.2920 XXXY=             -1.4896
 XXXZ=              0.4508 YYYX=              0.5045 YYYZ=              0.6803 ZZZX=             -1.4293
 ZZZY=             -0.2171 XXYY=            -30.4023 XXZZ=            -25.3607 YYZZ=            -10.9015
 XXYZ=             -0.7221 YYXZ=              0.7148 ZZXY=             -0.5012
 N-N= 7.023981791959D+01 E-N=-4.995605296690D+02  KE= 1.524582276288D+02
 1\1\GINC-NODE67\SP\RwB97X\6-31G(d)\C2H4O1\YANZ\22-Sep-2023\0\\# 6-31g(
 d) wb97x\\tmpdir/M2_conf_2_64.gjf\\0,1\C,0,0.,0.,0.\C,0,1.5001,0.,0.\H
 ,0,1.97712,0.,0.97674\H,0,-0.41005,0.37964,-0.97271\H,0,-0.48828,0.678
 11,0.81679\H,0,-0.39119,-1.02575,0.13595\O,0,2.14555,-0.0425,-0.97721\
 \Version=ES64L-G16RevA.03\State=1-A\HF=-153.7782235\RMSD=4.620e-09\Dip
 ole=-0.676719,-0.004841,0.69861\Quadrupole=-0.5853093,0.8106785,-0.225
 3692,0.1067262,1.2548395,-0.0634889\PG=C01 [X(C2H4O1)]\\@


 THE DIFFERENCE BETWEEN A NOOSE AND A HALO IS ONLY 12 INCHES.
 Job cpu time:       0 days  0 hours  0 minutes 13.9 seconds.
 Elapsed time:       0 days  0 hours  0 minutes  7.0 seconds.
 File lengths (MBytes):  RWF=      6 Int=      0 D2E=      0 Chk=      1 Scr=      1
 Normal termination of Gaussian 16 at Fri Sep 22 16:32:54 2023.
