 Entering Gaussian System, Link 0=g16
 Initial command:
 /share/apps/gaussian/g16/l1.exe "/tmp/55568.mgr/Gau-359338.inp" -scrdir="/tmp/55568.mgr/"
 Entering Link 1 = /share/apps/gaussian/g16/l1.exe PID=    359339.
  
 Copyright (c) 1988,1990,1992,1993,1995,1998,2003,2009,2016,
            Gaussian, Inc.  All Rights Reserved.
  
 This is part of the Gaussian(R) 16 program.  It is based on
 the Gaussian(R) 09 system (copyright 2009, Gaussian, Inc.),
 the Gaussian(R) 03 system (copyright 2003, Gaussian, Inc.),
 the Gaussian(R) 98 system (copyright 1998, Gaussian, Inc.),
 the Gaussian(R) 94 system (copyright 1995, Gaussian, Inc.),
 the Gaussian 92(TM) system (copyright 1992, Gaussian, Inc.),
 the Gaussian 90(TM) system (copyright 1990, Gaussian, Inc.),
 the Gaussian 88(TM) system (copyright 1988, Gaussian, Inc.),
 the Gaussian 86(TM) system (copyright 1986, Carnegie Mellon
 University), and the Gaussian 82(TM) system (copyright 1983,
 Carnegie Mellon University). Gaussian is a federally registered
 trademark of Gaussian, Inc.
  
 This software contains proprietary and confidential information,
 including trade secrets, belonging to Gaussian, Inc.
  
 This software is provided under written license and may be
 used, copied, transmitted, or stored only in accord with that
 written license.
  
 The following legend is applicable only to US Government
 contracts under FAR:
  
                    RESTRICTED RIGHTS LEGEND
  
 Use, reproduction and disclosure by the US Government is
 subject to restrictions as set forth in subparagraphs (a)
 and (c) of the Commercial Computer Software - Restricted
 Rights clause in FAR 52.227-19.
  
 Gaussian, Inc.
 340 Quinnipiac St., Bldg. 40, Wallingford CT 06492
  
  
 ---------------------------------------------------------------
 Warning -- This program may not be used in any manner that
 competes with the business of Gaussian, Inc. or will provide
 assistance to any competitor of Gaussian, Inc.  The licensee
 of this program is prohibited from giving any competitor of
 Gaussian, Inc. access to this program.  By using this program,
 the user acknowledges that Gaussian, Inc. is engaged in the
 business of creating and licensing software in the field of
 computational chemistry and represents and warrants to the
 licensee that it is not a competitor of Gaussian, Inc. and that
 it will not use this program in any manner prohibited above.
 ---------------------------------------------------------------
  

 Cite this work as:
 Gaussian 16, Revision A.03,
 M. J. Frisch, G. W. Trucks, H. B. Schlegel, G. E. Scuseria, 
 M. A. Robb, J. R. Cheeseman, G. Scalmani, V. Barone, 
 G. A. Petersson, H. Nakatsuji, X. Li, M. Caricato, A. V. Marenich, 
 J. Bloino, B. G. Janesko, R. Gomperts, B. Mennucci, H. P. Hratchian, 
 J. V. Ortiz, A. F. Izmaylov, J. L. Sonnenberg, D. Williams-Young, 
 F. Ding, F. Lipparini, F. Egidi, J. Goings, B. Peng, A. Petrone, 
 T. Henderson, D. Ranasinghe, V. G. Zakrzewski, J. Gao, N. Rega, 
 G. Zheng, W. Liang, M. Hada, M. Ehara, K. Toyota, R. Fukuda, 
 J. Hasegawa, M. Ishida, T. Nakajima, Y. Honda, O. Kitao, H. Nakai, 
 T. Vreven, K. Throssell, J. A. Montgomery, Jr., J. E. Peralta, 
 F. Ogliaro, M. J. Bearpark, J. J. Heyd, E. N. Brothers, K. N. Kudin, 
 V. N. Staroverov, T. A. Keith, R. Kobayashi, J. Normand, 
 K. Raghavachari, A. P. Rendell, J. C. Burant, S. S. Iyengar, 
 J. Tomasi, M. Cossi, J. M. Millam, M. Klene, C. Adamo, R. Cammi, 
 J. W. Ochterski, R. L. Martin, K. Morokuma, O. Farkas, 
 J. B. Foresman, and D. J. Fox, Gaussian, Inc., Wallingford CT, 2016.
 
 ******************************************
 Gaussian 16:  ES64L-G16RevA.03 25-Dec-2016
                22-Sep-2023 
 ******************************************
 %nprocshared=2
 Will use up to    2 processors via shared memory.
 %mem=2GB
 ----------------
 # 6-31g(d) wb97x
 ----------------
 1/38=1,172=1/1;
 2/12=2,17=6,18=5,40=1/2;
 3/5=1,6=6,7=1,11=2,25=1,30=1,74=-57/1,2,3;
 4//1;
 5/5=2,38=5/2;
 6/7=2,8=2,9=2,10=2,28=1/1;
 99/5=1,9=1/99;
 ------------------------
 tmpdir/M2_conf_2_104.gjf
 ------------------------
 Symbolic Z-matrix:
 Charge =  0 Multiplicity = 1
 C                     0.        0.        0. 
 C                     1.5258    0.        0. 
 H                     1.87446   0.        1.04022 
 H                    -0.33049  -0.06773  -1.12668 
 H                    -0.43233  -0.80438   0.628 
 H                    -0.3507    0.97135   0.397 
 H                     1.97013   0.85856  -0.53524 
 H                     1.88021  -0.93512  -0.44803 
 
                          Input orientation:                          
 ---------------------------------------------------------------------
 Center     Atomic      Atomic             Coordinates (Angstroms)
 Number     Number       Type             X           Y           Z
 ---------------------------------------------------------------------
      1          6           0        0.000000    0.000000    0.000000
      2          6           0        1.525800    0.000000    0.000000
      3          1           0        1.874460    0.000000    1.040220
      4          1           0       -0.330490   -0.067730   -1.126680
      5          1           0       -0.432330   -0.804380    0.628000
      6          1           0       -0.350700    0.971350    0.397000
      7          1           0        1.970130    0.858560   -0.535240
      8          1           0        1.880210   -0.935120   -0.448030
 ---------------------------------------------------------------------
                    Distance matrix (angstroms):
                    1          2          3          4          5
     1  C    0.000000
     2  C    1.525800   0.000000
     3  H    2.143749   1.097097   0.000000
     4  H    1.176103   2.172512   3.092224   0.000000
     5  H    1.108296   2.208095   2.477546   1.905761   0.000000
     6  H    1.106400   2.149973   2.511691   1.844369   1.792552
     7  H    2.214728   1.105005   1.796762   2.549641   3.144886
     8  H    2.147177   1.095804   1.757661   2.469843   2.553972
                    6          7          8
     6  H    0.000000
     7  H    2.503606   0.000000
     8  H    3.053795   1.798049   0.000000
 Stoichiometry    C2H6
 Framework group  C1[X(C2H6)]
 Deg. of freedom    18
 Full point group                 C1      NOp   1
 Largest Abelian subgroup         C1      NOp   1
 Largest concise Abelian subgroup C1      NOp   1
                         Standard orientation:                         
 ---------------------------------------------------------------------
 Center     Atomic      Atomic             Coordinates (Angstroms)
 Number     Number       Type             X           Y           Z
 ---------------------------------------------------------------------
      1          6           0        0.764750    0.007158   -0.002476
      2          6           0       -0.761019   -0.001593    0.001905
      3          1           0       -1.114161    0.966747    0.377710
      4          1           0        1.099774   -1.017535   -0.472562
      5          1           0        1.190544    0.885262   -0.527789
      6          1           0        1.118338    0.029530    1.045663
      7          1           0       -1.198956   -0.812757    0.611216
      8          1           0       -1.117925   -0.084641   -1.030813
 ---------------------------------------------------------------------
 Rotational constants (GHZ):          76.0125512          20.1874572          19.9874301
 Standard basis: 6-31G(d) (6D, 7F)
 There are    42 symmetry adapted cartesian basis functions of A   symmetry.
 There are    42 symmetry adapted basis functions of A   symmetry.
    42 basis functions,    80 primitive gaussians,    42 cartesian basis functions
     9 alpha electrons        9 beta electrons
       nuclear repulsion energy        41.8811758980 Hartrees.
 NAtoms=    8 NActive=    8 NUniq=    8 SFac= 1.00D+00 NAtFMM=   60 NAOKFM=F Big=F
 Integral buffers will be    131072 words long.
 Raffenetti 2 integral format.
 Two-electron integral symmetry is turned on.
 One-electron integrals computed using PRISM.
 NBasis=    42 RedAO= T EigKep=  8.30D-03  NBF=    42
 NBsUse=    42 1.00D-06 EigRej= -1.00D+00 NBFU=    42
 ExpMin= 1.61D-01 ExpMax= 3.05D+03 ExpMxC= 4.57D+02 IAcc=3 IRadAn=         5 AccDes= 0.00D+00
 Harris functional with IExCor= 4538 and IRadAn=       5 diagonalized for initial guess.
 HarFok:  IExCor= 4538 AccDes= 0.00D+00 IRadAn=         5 IDoV= 1 UseB2=F ITyADJ=14
 ICtDFT=  3500011 ScaDFX=  1.000000  1.000000  1.000000  1.000000
 FoFCou: FMM=F IPFlag=           0 FMFlag=      100000 FMFlg1=           0
         NFxFlg=           0 DoJE=T BraDBF=F KetDBF=T FulRan=T
         wScrn=  0.000000 ICntrl=       500 IOpCl=  0 I1Cent=   200000004 NGrid=           0
         NMat0=    1 NMatS0=      1 NMatT0=    0 NMatD0=    1 NMtDS0=    0 NMtDT0=    0
 Petite list used in FoFCou.
 Keep R1 ints in memory in canonical form, NReq=2543288.
 Requested convergence on RMS density matrix=1.00D-08 within 128 cycles.
 Requested convergence on MAX density matrix=1.00D-06.
 Requested convergence on             energy=1.00D-06.
 No special actions if energy rises.
 Integral accuracy reduced to 1.0D-05 until final iterations.
 Initial convergence to 1.0D-05 achieved.  Increase integral accuracy.
 SCF Done:  E(RwB97X) =  -79.7952982565     A.U. after   12 cycles
            NFock= 12  Conv=0.21D-08     -V/T= 2.0123

 **********************************************************************

            Population analysis using the SCF density.

 **********************************************************************

 Orbital symmetries:
       Occupied  (A) (A) (A) (A) (A) (A) (A) (A) (A)
       Virtual   (A) (A) (A) (A) (A) (A) (A) (A) (A) (A) (A) (A)
                 (A) (A) (A) (A) (A) (A) (A) (A) (A) (A) (A) (A)
                 (A) (A) (A) (A) (A) (A) (A) (A) (A)
 The electronic state is 1-A.
 Alpha  occ. eigenvalues --  -10.26582 -10.25582  -0.87813  -0.72587  -0.54464
 Alpha  occ. eigenvalues --   -0.53880  -0.46489  -0.44104  -0.43165
 Alpha virt. eigenvalues --    0.19205   0.24911   0.25196   0.26078   0.27743
 Alpha virt. eigenvalues --    0.29055   0.33576   0.61540   0.65167   0.66692
 Alpha virt. eigenvalues --    0.72964   0.76100   0.78762   0.96680   0.99509
 Alpha virt. eigenvalues --    1.00219   1.03300   1.03999   1.08783   1.17333
 Alpha virt. eigenvalues --    1.54188   1.60642   1.63767   2.04243   2.07618
 Alpha virt. eigenvalues --    2.13799   2.32809   2.35679   2.40905   2.44600
 Alpha virt. eigenvalues --    2.70474   4.26464   4.48483
          Condensed to atoms (all electrons):
               1          2          3          4          5          6
     1  C    5.059506   0.350549  -0.038834   0.379688   0.387354   0.385773
     2  C    0.350549   5.059298   0.387146  -0.040946  -0.032053  -0.038729
     3  H   -0.038834   0.387146   0.556350   0.004580  -0.003470  -0.003120
     4  H    0.379688  -0.040946   0.004580   0.574545  -0.020798  -0.026290
     5  H    0.387354  -0.032053  -0.003470  -0.020798   0.538144  -0.029559
     6  H    0.385773  -0.038729  -0.003120  -0.026290  -0.029559   0.556032
     7  H   -0.030396   0.388895  -0.026228  -0.002468   0.003473  -0.004001
     8  H   -0.037998   0.389031  -0.029990  -0.004815  -0.002753   0.004633
               7          8
     1  C   -0.030396  -0.037998
     2  C    0.388895   0.389031
     3  H   -0.026228  -0.029990
     4  H   -0.002468  -0.004815
     5  H    0.003473  -0.002753
     6  H   -0.004001   0.004633
     7  H    0.539665  -0.026737
     8  H   -0.026737   0.552589
 Mulliken charges:
               1
     1  C   -0.455641
     2  C   -0.463190
     3  H    0.153567
     4  H    0.136504
     5  H    0.159661
     6  H    0.155261
     7  H    0.157797
     8  H    0.156042
 Sum of Mulliken charges =   0.00000
 Mulliken charges with hydrogens summed into heavy atoms:
               1
     1  C   -0.004215
     2  C    0.004215
 Electronic spatial extent (au):  <R**2>=            109.8503
 Charge=              0.0000 electrons
 Dipole moment (field-independent basis, Debye):
    X=             -0.0513    Y=              0.0616    Z=              0.0312  Tot=              0.0860
 Quadrupole moment (field-independent basis, Debye-Ang):
   XX=            -15.6566   YY=            -14.5680   ZZ=            -14.8021
   XY=              0.2390   XZ=             -0.0096   YZ=             -0.0891
 Traceless Quadrupole moment (field-independent basis, Debye-Ang):
   XX=             -0.6477   YY=              0.4409   ZZ=              0.2068
   XY=              0.2390   XZ=             -0.0096   YZ=             -0.0891
 Octapole moment (field-independent basis, Debye-Ang**2):
  XXX=             -0.5417  YYY=              0.2644  ZZZ=              0.1718  XYY=              0.0469
  XXY=              0.2143  XXZ=              0.1356  XZZ=             -0.1618  YZZ=             -0.0512
  YYZ=             -0.0877  XYZ=              0.0550
 Hexadecapole moment (field-independent basis, Debye-Ang**3):
 XXXX=            -93.1972 YYYY=            -29.6648 ZZZZ=            -28.8630 XXXY=              1.0718
 XXXZ=             -0.0944 YYYX=              0.0262 YYYZ=             -0.0483 ZZZX=              1.4473
 ZZZY=             -0.2082 XXYY=            -19.0375 XXZZ=            -19.2366 YYZZ=             -9.8538
 XXYZ=             -0.3734 YYXZ=             -1.3819 ZZXY=              0.4633
 N-N= 4.188117589804D+01 E-N=-2.674076218551D+02  KE= 7.882923340187D+01
 1\1\GINC-NODE67\SP\RwB97X\6-31G(d)\C2H6\YANZ\22-Sep-2023\0\\# 6-31g(d)
  wb97x\\tmpdir/M2_conf_2_104.gjf\\0,1\C,0,0.,0.,0.\C,0,1.5258,0.,0.\H,
 0,1.87446,0.,1.04022\H,0,-0.33049,-0.06773,-1.12668\H,0,-0.43233,-0.80
 438,0.628\H,0,-0.3507,0.97135,0.397\H,0,1.97013,0.85856,-0.53524\H,0,1
 .88021,-0.93512,-0.44803\\Version=ES64L-G16RevA.03\State=1-A\HF=-79.79
 52983\RMSD=2.146e-09\Dipole=0.0200904,0.0026333,0.0271038\Quadrupole=-
 0.4794116,0.220181,0.2592306,0.0744454,-0.1669285,-0.1064531\PG=C01 [X
 (C2H6)]\\@


 THE MORE POWERFUL THE METHOD, THE MORE CATASTROPHIC THE ERRORS.
     -- M.D. KAMEN
 Job cpu time:       0 days  0 hours  0 minutes 10.3 seconds.
 Elapsed time:       0 days  0 hours  0 minutes  5.2 seconds.
 File lengths (MBytes):  RWF=      6 Int=      0 D2E=      0 Chk=      1 Scr=      1
 Normal termination of Gaussian 16 at Fri Sep 22 16:33:25 2023.
