 Entering Gaussian System, Link 0=g16
 Initial command:
 /share/apps/gaussian/g16/l1.exe "/tmp/55568.mgr/Gau-356075.inp" -scrdir="/tmp/55568.mgr/"
 Entering Link 1 = /share/apps/gaussian/g16/l1.exe PID=    356084.
  
 Copyright (c) 1988,1990,1992,1993,1995,1998,2003,2009,2016,
            Gaussian, Inc.  All Rights Reserved.
  
 This is part of the Gaussian(R) 16 program.  It is based on
 the Gaussian(R) 09 system (copyright 2009, Gaussian, Inc.),
 the Gaussian(R) 03 system (copyright 2003, Gaussian, Inc.),
 the Gaussian(R) 98 system (copyright 1998, Gaussian, Inc.),
 the Gaussian(R) 94 system (copyright 1995, Gaussian, Inc.),
 the Gaussian 92(TM) system (copyright 1992, Gaussian, Inc.),
 the Gaussian 90(TM) system (copyright 1990, Gaussian, Inc.),
 the Gaussian 88(TM) system (copyright 1988, Gaussian, Inc.),
 the Gaussian 86(TM) system (copyright 1986, Carnegie Mellon
 University), and the Gaussian 82(TM) system (copyright 1983,
 Carnegie Mellon University). Gaussian is a federally registered
 trademark of Gaussian, Inc.
  
 This software contains proprietary and confidential information,
 including trade secrets, belonging to Gaussian, Inc.
  
 This software is provided under written license and may be
 used, copied, transmitted, or stored only in accord with that
 written license.
  
 The following legend is applicable only to US Government
 contracts under FAR:
  
                    RESTRICTED RIGHTS LEGEND
  
 Use, reproduction and disclosure by the US Government is
 subject to restrictions as set forth in subparagraphs (a)
 and (c) of the Commercial Computer Software - Restricted
 Rights clause in FAR 52.227-19.
  
 Gaussian, Inc.
 340 Quinnipiac St., Bldg. 40, Wallingford CT 06492
  
  
 ---------------------------------------------------------------
 Warning -- This program may not be used in any manner that
 competes with the business of Gaussian, Inc. or will provide
 assistance to any competitor of Gaussian, Inc.  The licensee
 of this program is prohibited from giving any competitor of
 Gaussian, Inc. access to this program.  By using this program,
 the user acknowledges that Gaussian, Inc. is engaged in the
 business of creating and licensing software in the field of
 computational chemistry and represents and warrants to the
 licensee that it is not a competitor of Gaussian, Inc. and that
 it will not use this program in any manner prohibited above.
 ---------------------------------------------------------------
  

 Cite this work as:
 Gaussian 16, Revision A.03,
 M. J. Frisch, G. W. Trucks, H. B. Schlegel, G. E. Scuseria, 
 M. A. Robb, J. R. Cheeseman, G. Scalmani, V. Barone, 
 G. A. Petersson, H. Nakatsuji, X. Li, M. Caricato, A. V. Marenich, 
 J. Bloino, B. G. Janesko, R. Gomperts, B. Mennucci, H. P. Hratchian, 
 J. V. Ortiz, A. F. Izmaylov, J. L. Sonnenberg, D. Williams-Young, 
 F. Ding, F. Lipparini, F. Egidi, J. Goings, B. Peng, A. Petrone, 
 T. Henderson, D. Ranasinghe, V. G. Zakrzewski, J. Gao, N. Rega, 
 G. Zheng, W. Liang, M. Hada, M. Ehara, K. Toyota, R. Fukuda, 
 J. Hasegawa, M. Ishida, T. Nakajima, Y. Honda, O. Kitao, H. Nakai, 
 T. Vreven, K. Throssell, J. A. Montgomery, Jr., J. E. Peralta, 
 F. Ogliaro, M. J. Bearpark, J. J. Heyd, E. N. Brothers, K. N. Kudin, 
 V. N. Staroverov, T. A. Keith, R. Kobayashi, J. Normand, 
 K. Raghavachari, A. P. Rendell, J. C. Burant, S. S. Iyengar, 
 J. Tomasi, M. Cossi, J. M. Millam, M. Klene, C. Adamo, R. Cammi, 
 J. W. Ochterski, R. L. Martin, K. Morokuma, O. Farkas, 
 J. B. Foresman, and D. J. Fox, Gaussian, Inc., Wallingford CT, 2016.
 
 ******************************************
 Gaussian 16:  ES64L-G16RevA.03 25-Dec-2016
                22-Sep-2023 
 ******************************************
 %nprocshared=2
 Will use up to    2 processors via shared memory.
 %mem=2GB
 ----------------
 # 6-31g(d) wb97x
 ----------------
 1/38=1,172=1/1;
 2/12=2,17=6,18=5,40=1/2;
 3/5=1,6=6,7=1,11=2,25=1,30=1,74=-57/1,2,3;
 4//1;
 5/5=2,38=5/2;
 6/7=2,8=2,9=2,10=2,28=1/1;
 99/5=1,9=1/99;
 -----------------------
 tmpdir/M2_conf_1_18.gjf
 -----------------------
 Symbolic Z-matrix:
 Charge =  0 Multiplicity = 1
 C                     0.        0.        0. 
 C                     1.5268    0.        0. 
 H                     1.93135   0.        1.02387 
 H                    -0.34701   0.74321   0.85316 
 H                    -0.40637  -1.01822   0.15909 
 H                    -0.40467   0.41066  -0.93198 
 H                     1.97187  -0.84791  -0.50988 
 H                     1.92784   0.91778  -0.44308 
 
                          Input orientation:                          
 ---------------------------------------------------------------------
 Center     Atomic      Atomic             Coordinates (Angstroms)
 Number     Number       Type             X           Y           Z
 ---------------------------------------------------------------------
      1          6           0        0.000000    0.000000    0.000000
      2          6           0        1.526800    0.000000    0.000000
      3          1           0        1.931350    0.000000    1.023870
      4          1           0       -0.347010    0.743210    0.853160
      5          1           0       -0.406370   -1.018220    0.159090
      6          1           0       -0.404670    0.410660   -0.931980
      7          1           0        1.971870   -0.847910   -0.509880
      8          1           0        1.927840    0.917780   -0.443080
 ---------------------------------------------------------------------
                    Distance matrix (angstroms):
                    1          2          3          4          5
     1  C    0.000000
     2  C    1.526800   0.000000
     3  H    2.185960   1.100895   0.000000
     4  H    1.183494   2.188928   2.402588   0.000000
     5  H    1.107799   2.190714   2.692499   1.894173   0.000000
     6  H    1.095895   2.183530   3.074245   1.816766   1.797814
     7  H    2.206173   1.084904   1.752992   3.125179   2.476399
     8  H    2.180644   1.095205   1.730397   2.624053   3.091802
                    6          7          8
     6  H    0.000000
     7  H    2.722152   0.000000
     8  H    2.436554   1.767502   0.000000
 Stoichiometry    C2H6
 Framework group  C1[X(C2H6)]
 Deg. of freedom    18
 Full point group                 C1      NOp   1
 Largest Abelian subgroup         C1      NOp   1
 Largest concise Abelian subgroup C1      NOp   1
                         Standard orientation:                         
 ---------------------------------------------------------------------
 Center     Atomic      Atomic             Coordinates (Angstroms)
 Number     Number       Type             X           Y           Z
 ---------------------------------------------------------------------
      1          6           0       -0.768474    0.017594   -0.000147
      2          6           0        0.758297    0.010245    0.005711
      3          1           0        1.164324   -0.423407   -0.921143
      4          1           0       -1.118687   -1.014368   -0.461736
      5          1           0       -1.168514    0.875743   -0.575270
      6          1           0       -1.176945    0.040135    1.016529
      7          1           0        1.207692    0.991931    0.112259
      8          1           0        1.153196   -0.637063    0.795977
 ---------------------------------------------------------------------
 Rotational constants (GHZ):          77.8298561          19.9808673          19.7463759
 Standard basis: 6-31G(d) (6D, 7F)
 There are    42 symmetry adapted cartesian basis functions of A   symmetry.
 There are    42 symmetry adapted basis functions of A   symmetry.
    42 basis functions,    80 primitive gaussians,    42 cartesian basis functions
     9 alpha electrons        9 beta electrons
       nuclear repulsion energy        41.8631743752 Hartrees.
 NAtoms=    8 NActive=    8 NUniq=    8 SFac= 1.00D+00 NAtFMM=   60 NAOKFM=F Big=F
 Integral buffers will be    131072 words long.
 Raffenetti 2 integral format.
 Two-electron integral symmetry is turned on.
 One-electron integrals computed using PRISM.
 NBasis=    42 RedAO= T EigKep=  8.50D-03  NBF=    42
 NBsUse=    42 1.00D-06 EigRej= -1.00D+00 NBFU=    42
 ExpMin= 1.61D-01 ExpMax= 3.05D+03 ExpMxC= 4.57D+02 IAcc=3 IRadAn=         5 AccDes= 0.00D+00
 Harris functional with IExCor= 4538 and IRadAn=       5 diagonalized for initial guess.
 HarFok:  IExCor= 4538 AccDes= 0.00D+00 IRadAn=         5 IDoV= 1 UseB2=F ITyADJ=14
 ICtDFT=  3500011 ScaDFX=  1.000000  1.000000  1.000000  1.000000
 FoFCou: FMM=F IPFlag=           0 FMFlag=      100000 FMFlg1=           0
         NFxFlg=           0 DoJE=T BraDBF=F KetDBF=T FulRan=T
         wScrn=  0.000000 ICntrl=       500 IOpCl=  0 I1Cent=   200000004 NGrid=           0
         NMat0=    1 NMatS0=      1 NMatT0=    0 NMatD0=    1 NMtDS0=    0 NMtDT0=    0
 Petite list used in FoFCou.
 Keep R1 ints in memory in canonical form, NReq=2543288.
 Requested convergence on RMS density matrix=1.00D-08 within 128 cycles.
 Requested convergence on MAX density matrix=1.00D-06.
 Requested convergence on             energy=1.00D-06.
 No special actions if energy rises.
 Integral accuracy reduced to 1.0D-05 until final iterations.
 Initial convergence to 1.0D-05 achieved.  Increase integral accuracy.
 SCF Done:  E(RwB97X) =  -79.7947866673     A.U. after   12 cycles
            NFock= 12  Conv=0.20D-08     -V/T= 2.0120

 **********************************************************************

            Population analysis using the SCF density.

 **********************************************************************

 Orbital symmetries:
       Occupied  (A) (A) (A) (A) (A) (A) (A) (A) (A)
       Virtual   (A) (A) (A) (A) (A) (A) (A) (A) (A) (A) (A) (A)
                 (A) (A) (A) (A) (A) (A) (A) (A) (A) (A) (A) (A)
                 (A) (A) (A) (A) (A) (A) (A) (A) (A)
 The electronic state is 1-A.
 Alpha  occ. eigenvalues --  -10.26623 -10.25397  -0.87691  -0.73078  -0.54386
 Alpha  occ. eigenvalues --   -0.53450  -0.46790  -0.44348  -0.43058
 Alpha virt. eigenvalues --    0.19383   0.23639   0.24928   0.25236   0.29745
 Alpha virt. eigenvalues --    0.30783   0.34023   0.61837   0.64569   0.65854
 Alpha virt. eigenvalues --    0.75138   0.76525   0.78868   0.96274   0.99436
 Alpha virt. eigenvalues --    1.01035   1.03173   1.04316   1.09173   1.16419
 Alpha virt. eigenvalues --    1.54328   1.62007   1.62595   2.03963   2.09012
 Alpha virt. eigenvalues --    2.10526   2.29503   2.33996   2.45193   2.48761
 Alpha virt. eigenvalues --    2.69936   4.26216   4.49132
          Condensed to atoms (all electrons):
               1          2          3          4          5          6
     1  C    5.054030   0.347079  -0.033447   0.379926   0.387270   0.388220
     2  C    0.347079   5.062857   0.389911  -0.038148  -0.034621  -0.034510
     3  H   -0.033447   0.389911   0.555200  -0.007310  -0.000874   0.003946
     4  H    0.379926  -0.038148  -0.007310   0.577215  -0.020999  -0.029365
     5  H    0.387270  -0.034621  -0.000874  -0.020999   0.538533  -0.028040
     6  H    0.388220  -0.034510   0.003946  -0.029365  -0.028040   0.544829
     7  H   -0.031515   0.389442  -0.029938   0.003771  -0.004726  -0.000593
     8  H   -0.033499   0.388711  -0.032993  -0.000351   0.003775  -0.006134
               7          8
     1  C   -0.031515  -0.033499
     2  C    0.389442   0.388711
     3  H   -0.029938  -0.032993
     4  H    0.003771  -0.000351
     5  H   -0.004726   0.003775
     6  H   -0.000593  -0.006134
     7  H    0.540255  -0.026951
     8  H   -0.026951   0.551005
 Mulliken charges:
               1
     1  C   -0.458065
     2  C   -0.470720
     3  H    0.155506
     4  H    0.135261
     5  H    0.159681
     6  H    0.161645
     7  H    0.160255
     8  H    0.156437
 Sum of Mulliken charges =  -0.00000
 Mulliken charges with hydrogens summed into heavy atoms:
               1
     1  C   -0.001477
     2  C    0.001477
 Electronic spatial extent (au):  <R**2>=            110.3976
 Charge=             -0.0000 electrons
 Dipole moment (field-independent basis, Debye):
    X=              0.0633    Y=              0.0170    Z=              0.0390  Tot=              0.0762
 Quadrupole moment (field-independent basis, Debye-Ang):
   XX=            -15.3471   YY=            -14.5933   ZZ=            -14.8908
   XY=             -0.0898   XZ=             -0.1088   YZ=             -0.0834
 Traceless Quadrupole moment (field-independent basis, Debye-Ang):
   XX=             -0.4034   YY=              0.3504   ZZ=              0.0530
   XY=             -0.0898   XZ=             -0.1088   YZ=             -0.0834
 Octapole moment (field-independent basis, Debye-Ang**2):
  XXX=              0.7751  YYY=              0.4471  ZZZ=              0.5400  XYY=              0.0663
  XXY=              0.2524  XXZ=              0.1791  XZZ=             -0.0015  YZZ=             -0.3146
  YYZ=             -0.4072  XYZ=              0.1016
 Hexadecapole moment (field-independent basis, Debye-Ang**3):
 XXXX=            -93.5065 YYYY=            -29.5588 ZZZZ=            -28.6918 XXXY=             -0.3649
 XXXZ=             -0.4463 YYYX=              0.5513 YYYZ=             -0.1107 ZZZX=             -1.1527
 ZZZY=             -0.1917 XXYY=            -19.0950 XXZZ=            -19.2658 YYZZ=             -9.6693
 XXYZ=             -0.1879 YYXZ=              0.9291 ZZXY=             -0.8341
 N-N= 4.186317437519D+01 E-N=-2.673853919375D+02  KE= 7.885027363013D+01
 1\1\GINC-NODE67\SP\RwB97X\6-31G(d)\C2H6\YANZ\22-Sep-2023\0\\# 6-31g(d)
  wb97x\\tmpdir/M2_conf_1_18.gjf\\0,1\C,0,0.,0.,0.\C,0,1.5268,0.,0.\H,0
 ,1.93135,0.,1.02387\H,0,-0.34701,0.74321,0.85316\H,0,-0.40637,-1.01822
 ,0.15909\H,0,-0.40467,0.41066,-0.93198\H,0,1.97187,-0.84791,-0.50988\H
 ,0,1.92784,0.91778,-0.44308\\Version=ES64L-G16RevA.03\State=1-A\HF=-79
 .7947867\RMSD=1.999e-09\Dipole=0.0249286,0.0002493,-0.0166787\Quadrupo
 le=-0.2998861,0.2682812,0.0316049,0.0297401,0.1012784,0.0440567\PG=C01
  [X(C2H6)]\\@


 IT IS BETTER TO THINK YOU ARE HALF DRY THAN TO KNOW YOU
 ARE ALL WET.  -- SNOOPY
 Job cpu time:       0 days  0 hours  0 minutes 10.9 seconds.
 Elapsed time:       0 days  0 hours  0 minutes  5.6 seconds.
 File lengths (MBytes):  RWF=      6 Int=      0 D2E=      0 Chk=      1 Scr=      1
 Normal termination of Gaussian 16 at Fri Sep 22 16:31:23 2023.
