 Entering Gaussian System, Link 0=g16
 Initial command:
 /share/apps/gaussian/g16/l1.exe "/tmp/55568.mgr/Gau-355226.inp" -scrdir="/tmp/55568.mgr/"
 Entering Link 1 = /share/apps/gaussian/g16/l1.exe PID=    355227.
  
 Copyright (c) 1988,1990,1992,1993,1995,1998,2003,2009,2016,
            Gaussian, Inc.  All Rights Reserved.
  
 This is part of the Gaussian(R) 16 program.  It is based on
 the Gaussian(R) 09 system (copyright 2009, Gaussian, Inc.),
 the Gaussian(R) 03 system (copyright 2003, Gaussian, Inc.),
 the Gaussian(R) 98 system (copyright 1998, Gaussian, Inc.),
 the Gaussian(R) 94 system (copyright 1995, Gaussian, Inc.),
 the Gaussian 92(TM) system (copyright 1992, Gaussian, Inc.),
 the Gaussian 90(TM) system (copyright 1990, Gaussian, Inc.),
 the Gaussian 88(TM) system (copyright 1988, Gaussian, Inc.),
 the Gaussian 86(TM) system (copyright 1986, Carnegie Mellon
 University), and the Gaussian 82(TM) system (copyright 1983,
 Carnegie Mellon University). Gaussian is a federally registered
 trademark of Gaussian, Inc.
  
 This software contains proprietary and confidential information,
 including trade secrets, belonging to Gaussian, Inc.
  
 This software is provided under written license and may be
 used, copied, transmitted, or stored only in accord with that
 written license.
  
 The following legend is applicable only to US Government
 contracts under FAR:
  
                    RESTRICTED RIGHTS LEGEND
  
 Use, reproduction and disclosure by the US Government is
 subject to restrictions as set forth in subparagraphs (a)
 and (c) of the Commercial Computer Software - Restricted
 Rights clause in FAR 52.227-19.
  
 Gaussian, Inc.
 340 Quinnipiac St., Bldg. 40, Wallingford CT 06492
  
  
 ---------------------------------------------------------------
 Warning -- This program may not be used in any manner that
 competes with the business of Gaussian, Inc. or will provide
 assistance to any competitor of Gaussian, Inc.  The licensee
 of this program is prohibited from giving any competitor of
 Gaussian, Inc. access to this program.  By using this program,
 the user acknowledges that Gaussian, Inc. is engaged in the
 business of creating and licensing software in the field of
 computational chemistry and represents and warrants to the
 licensee that it is not a competitor of Gaussian, Inc. and that
 it will not use this program in any manner prohibited above.
 ---------------------------------------------------------------
  

 Cite this work as:
 Gaussian 16, Revision A.03,
 M. J. Frisch, G. W. Trucks, H. B. Schlegel, G. E. Scuseria, 
 M. A. Robb, J. R. Cheeseman, G. Scalmani, V. Barone, 
 G. A. Petersson, H. Nakatsuji, X. Li, M. Caricato, A. V. Marenich, 
 J. Bloino, B. G. Janesko, R. Gomperts, B. Mennucci, H. P. Hratchian, 
 J. V. Ortiz, A. F. Izmaylov, J. L. Sonnenberg, D. Williams-Young, 
 F. Ding, F. Lipparini, F. Egidi, J. Goings, B. Peng, A. Petrone, 
 T. Henderson, D. Ranasinghe, V. G. Zakrzewski, J. Gao, N. Rega, 
 G. Zheng, W. Liang, M. Hada, M. Ehara, K. Toyota, R. Fukuda, 
 J. Hasegawa, M. Ishida, T. Nakajima, Y. Honda, O. Kitao, H. Nakai, 
 T. Vreven, K. Throssell, J. A. Montgomery, Jr., J. E. Peralta, 
 F. Ogliaro, M. J. Bearpark, J. J. Heyd, E. N. Brothers, K. N. Kudin, 
 V. N. Staroverov, T. A. Keith, R. Kobayashi, J. Normand, 
 K. Raghavachari, A. P. Rendell, J. C. Burant, S. S. Iyengar, 
 J. Tomasi, M. Cossi, J. M. Millam, M. Klene, C. Adamo, R. Cammi, 
 J. W. Ochterski, R. L. Martin, K. Morokuma, O. Farkas, 
 J. B. Foresman, and D. J. Fox, Gaussian, Inc., Wallingford CT, 2016.
 
 ******************************************
 Gaussian 16:  ES64L-G16RevA.03 25-Dec-2016
                22-Sep-2023 
 ******************************************
 %nprocshared=2
 Will use up to    2 processors via shared memory.
 %mem=2GB
 ----------------
 # 6-31g(d) wb97x
 ----------------
 1/38=1,172=1/1;
 2/12=2,17=6,18=5,40=1/2;
 3/5=1,6=6,7=1,11=2,25=1,30=1,74=-57/1,2,3;
 4//1;
 5/5=2,38=5/2;
 6/7=2,8=2,9=2,10=2,28=1/1;
 99/5=1,9=1/99;
 -----------------------
 tmpdir/M2_conf_0_73.gjf
 -----------------------
 Symbolic Z-matrix:
 Charge =  0 Multiplicity = 1
 C                     0.        0.        0. 
 C                     1.531     0.        0. 
 C                     2.17607   0.        1.38273 
 H                    -0.4562   -0.88404   0.48239 
 H                    -0.3545    0.08282  -1.03388 
 H                    -0.32734   0.91959   0.50346 
 H                     1.99129  -0.92974  -0.55401 
 H                     1.87437   0.91068  -0.5262 
 H                     3.27571   0.10628   1.36003 
 H                     1.90765  -0.92853   1.89903 
 H                     1.7351    0.82346   1.95813 
 
                          Input orientation:                          
 ---------------------------------------------------------------------
 Center     Atomic      Atomic             Coordinates (Angstroms)
 Number     Number       Type             X           Y           Z
 ---------------------------------------------------------------------
      1          6           0        0.000000    0.000000    0.000000
      2          6           0        1.531000    0.000000    0.000000
      3          6           0        2.176070    0.000000    1.382730
      4          1           0       -0.456200   -0.884040    0.482390
      5          1           0       -0.354500    0.082820   -1.033880
      6          1           0       -0.327340    0.919590    0.503460
      7          1           0        1.991290   -0.929740   -0.554010
      8          1           0        1.874370    0.910680   -0.526200
      9          1           0        3.275710    0.106280    1.360030
     10          1           0        1.907650   -0.928530    1.899030
     11          1           0        1.735100    0.823460    1.958130
 ---------------------------------------------------------------------
                    Distance matrix (angstroms):
                    1          2          3          4          5
     1  C    0.000000
     2  C    1.531000   0.000000
     3  C    2.578221   1.525797   0.000000
     4  H    1.105597   2.227822   2.919072   0.000000
     5  H    1.096101   2.151947   3.500093   1.801176   0.000000
     6  H    1.098303   2.133669   2.808171   1.808350   1.750524
     7  H    2.266402   1.176100   2.156275   2.658274   2.599670
     8  H    2.149299   1.106403   2.136440   3.109635   2.431245
     9  H    3.548416   2.214721   1.104997   3.959563   4.348538
    10  H    2.847387   2.147172   1.095802   2.756199   3.839546
    11  H    2.742796   2.134014   1.097099   3.145657   3.723855
                    6          7          8          9         10
     6  H    0.000000
     7  H    3.148700   0.000000
     8  H    2.430598   1.844340   0.000000
     9  H    3.791722   2.527177   2.483682   0.000000
    10  H    3.218438   2.454466   3.043935   1.798038   0.000000
    11  H    2.525661   3.074116   2.489759   1.801541   1.761458
                   11
    11  H    0.000000
 Stoichiometry    C3H8
 Framework group  C1[X(C3H8)]
 Deg. of freedom    27
 Full point group                 C1      NOp   1
 Largest Abelian subgroup         C1      NOp   1
 Largest concise Abelian subgroup C1      NOp   1
                         Standard orientation:                         
 ---------------------------------------------------------------------
 Center     Atomic      Atomic             Coordinates (Angstroms)
 Number     Number       Type             X           Y           Z
 ---------------------------------------------------------------------
      1          6           0        1.291397   -0.251542    0.014409
      2          6           0       -0.003339    0.565376   -0.001793
      3          6           0       -1.286761   -0.259782   -0.001547
      4          1           0        1.414269   -0.894098    0.905683
      5          1           0        2.143440    0.432816   -0.069943
      6          1           0        1.305269   -0.861147   -0.899078
      7          1           0       -0.102731    1.288772    0.920177
      8          1           0       -0.007248    1.184512   -0.918736
      9          1           0       -2.203930    0.345106   -0.119573
     10          1           0       -1.341064   -0.830375    0.932401
     11          1           0       -1.215784   -0.989898   -0.817340
 ---------------------------------------------------------------------
 Rotational constants (GHZ):          29.8137685           8.2350030           7.3790523
 Standard basis: 6-31G(d) (6D, 7F)
 There are    61 symmetry adapted cartesian basis functions of A   symmetry.
 There are    61 symmetry adapted basis functions of A   symmetry.
    61 basis functions,   116 primitive gaussians,    61 cartesian basis functions
    13 alpha electrons       13 beta electrons
       nuclear repulsion energy        81.9757619607 Hartrees.
 NAtoms=   11 NActive=   11 NUniq=   11 SFac= 1.00D+00 NAtFMM=   60 NAOKFM=F Big=F
 Integral buffers will be    131072 words long.
 Raffenetti 2 integral format.
 Two-electron integral symmetry is turned on.
 One-electron integrals computed using PRISM.
 NBasis=    61 RedAO= T EigKep=  6.20D-03  NBF=    61
 NBsUse=    61 1.00D-06 EigRej= -1.00D+00 NBFU=    61
 ExpMin= 1.61D-01 ExpMax= 3.05D+03 ExpMxC= 4.57D+02 IAcc=3 IRadAn=         5 AccDes= 0.00D+00
 Harris functional with IExCor= 4538 and IRadAn=       5 diagonalized for initial guess.
 HarFok:  IExCor= 4538 AccDes= 0.00D+00 IRadAn=         5 IDoV= 1 UseB2=F ITyADJ=14
 ICtDFT=  3500011 ScaDFX=  1.000000  1.000000  1.000000  1.000000
 FoFCou: FMM=F IPFlag=           0 FMFlag=      100000 FMFlg1=           0
         NFxFlg=           0 DoJE=T BraDBF=F KetDBF=T FulRan=T
         wScrn=  0.000000 ICntrl=       500 IOpCl=  0 I1Cent=   200000004 NGrid=           0
         NMat0=    1 NMatS0=      1 NMatT0=    0 NMatD0=    1 NMtDS0=    0 NMtDT0=    0
 Petite list used in FoFCou.
 Keep R1 ints in memory in canonical form, NReq=5346468.
 Requested convergence on RMS density matrix=1.00D-08 within 128 cycles.
 Requested convergence on MAX density matrix=1.00D-06.
 Requested convergence on             energy=1.00D-06.
 No special actions if energy rises.
 Integral accuracy reduced to 1.0D-05 until final iterations.
 Initial convergence to 1.0D-05 achieved.  Increase integral accuracy.
 SCF Done:  E(RwB97X) =  -119.099568161     A.U. after   12 cycles
            NFock= 12  Conv=0.35D-08     -V/T= 2.0116

 **********************************************************************

            Population analysis using the SCF density.

 **********************************************************************

 Orbital symmetries:
       Occupied  (A) (A) (A) (A) (A) (A) (A) (A) (A) (A) (A) (A)
                 (A)
       Virtual   (A) (A) (A) (A) (A) (A) (A) (A) (A) (A) (A) (A)
                 (A) (A) (A) (A) (A) (A) (A) (A) (A) (A) (A) (A)
                 (A) (A) (A) (A) (A) (A) (A) (A) (A) (A) (A) (A)
                 (A) (A) (A) (A) (A) (A) (A) (A) (A) (A) (A) (A)
 The electronic state is 1-A.
 Alpha  occ. eigenvalues --  -10.27002 -10.25745 -10.25323  -0.90632  -0.80443
 Alpha  occ. eigenvalues --   -0.69230  -0.56488  -0.54298  -0.50122  -0.48411
 Alpha  occ. eigenvalues --   -0.43948  -0.42650  -0.41614
 Alpha virt. eigenvalues --    0.18406   0.23312   0.24343   0.24870   0.26282
 Alpha virt. eigenvalues --    0.28296   0.29250   0.29603   0.31954   0.36610
 Alpha virt. eigenvalues --    0.61278   0.62202   0.65901   0.67216   0.68760
 Alpha virt. eigenvalues --    0.78343   0.82257   0.85170   0.89216   0.96687
 Alpha virt. eigenvalues --    0.98616   1.00820   1.03054   1.03685   1.05704
 Alpha virt. eigenvalues --    1.08867   1.09816   1.14378   1.48994   1.55384
 Alpha virt. eigenvalues --    1.57116   1.68224   1.83719   2.00625   2.04772
 Alpha virt. eigenvalues --    2.07526   2.16467   2.19499   2.33717   2.36170
 Alpha virt. eigenvalues --    2.38714   2.49032   2.51559   2.69577   2.78118
 Alpha virt. eigenvalues --    4.25546   4.40549   4.57757
          Condensed to atoms (all electrons):
               1          2          3          4          5          6
     1  C    5.075098   0.364752  -0.051526   0.383838   0.384451   0.382918
     2  C    0.364752   4.980538   0.363532  -0.031416  -0.031533  -0.039131
     3  C   -0.051526   0.363532   5.085004  -0.002244   0.004272  -0.004690
     4  H    0.383838  -0.031416  -0.002244   0.541115  -0.025216  -0.025890
     5  H    0.384451  -0.031533   0.004272  -0.025216   0.544241  -0.030047
     6  H    0.382918  -0.039131  -0.004690  -0.025890  -0.030047   0.559955
     7  H   -0.033370   0.381529  -0.044832  -0.002851  -0.002411   0.004284
     8  H   -0.040546   0.389984  -0.043496   0.004220  -0.003354  -0.003982
     9  H    0.003793  -0.026810   0.384334  -0.000037  -0.000120  -0.000031
    10  H   -0.002623  -0.038205   0.384919   0.003200  -0.000071  -0.000233
    11  H   -0.003788  -0.042150   0.382741  -0.000255  -0.000022   0.005396
               7          8          9         10         11
     1  C   -0.033370  -0.040546   0.003793  -0.002623  -0.003788
     2  C    0.381529   0.389984  -0.026810  -0.038205  -0.042150
     3  C   -0.044832  -0.043496   0.384334   0.384919   0.382741
     4  H   -0.002851   0.004220  -0.000037   0.003200  -0.000255
     5  H   -0.002411  -0.003354  -0.000120  -0.000071  -0.000022
     6  H    0.004284  -0.003982  -0.000031  -0.000233   0.005396
     7  H    0.603116  -0.028922  -0.001962  -0.005274   0.005299
     8  H   -0.028922   0.582900  -0.003411   0.005166  -0.003783
     9  H   -0.001962  -0.003411   0.538613  -0.026052  -0.025314
    10  H   -0.005274   0.005166  -0.026052   0.558018  -0.030198
    11  H    0.005299  -0.003783  -0.025314  -0.030198   0.565746
 Mulliken charges:
               1
     1  C   -0.462997
     2  C   -0.271090
     3  C   -0.458012
     4  H    0.155537
     5  H    0.159809
     6  H    0.151453
     7  H    0.125396
     8  H    0.145224
     9  H    0.156998
    10  H    0.151353
    11  H    0.146330
 Sum of Mulliken charges =  -0.00000
 Mulliken charges with hydrogens summed into heavy atoms:
               1
     1  C    0.003801
     2  C   -0.000470
     3  C   -0.003331
 Electronic spatial extent (au):  <R**2>=            228.7966
 Charge=             -0.0000 electrons
 Dipole moment (field-independent basis, Debye):
    X=              0.0484    Y=             -0.0019    Z=             -0.0796  Tot=              0.0932
 Quadrupole moment (field-independent basis, Debye-Ang):
   XX=            -21.8627   YY=            -21.8994   ZZ=            -21.2034
   XY=             -0.2126   XZ=             -0.0900   YZ=             -0.1680
 Traceless Quadrupole moment (field-independent basis, Debye-Ang):
   XX=             -0.2075   YY=             -0.2442   ZZ=              0.4517
   XY=             -0.2126   XZ=             -0.0900   YZ=             -0.1680
 Octapole moment (field-independent basis, Debye-Ang**2):
  XXX=             -0.1694  YYY=             -0.3061  ZZZ=             -0.0407  XYY=              0.0966
  XXY=              1.6337  XXZ=             -0.1627  XZZ=              0.2262  YZZ=             -0.5971
  YYZ=             -0.0413  XYZ=             -0.1703
 Hexadecapole moment (field-independent basis, Debye-Ang**3):
 XXXX=           -201.9361 YYYY=            -69.4493 ZZZZ=            -43.3959 XXXY=             -0.6852
 XXXZ=              0.1448 YYYX=             -0.2482 YYYZ=             -0.1665 ZZZX=             -0.3487
 ZZZY=             -0.4910 XXYY=            -45.0320 XXZZ=            -41.8212 YYZZ=            -16.6906
 XXYZ=             -0.8454 YYXZ=              0.0732 ZZXY=             -0.4322
 N-N= 8.197576196075D+01 E-N=-4.383308911968D+02  KE= 1.177355812361D+02
 1\1\GINC-NODE67\SP\RwB97X\6-31G(d)\C3H8\YANZ\22-Sep-2023\0\\# 6-31g(d)
  wb97x\\tmpdir/M2_conf_0_73.gjf\\0,1\C,0,0.,0.,0.\C,0,1.531,0.,0.\C,0,
 2.17607,0.,1.38273\H,0,-0.4562,-0.88404,0.48239\H,0,-0.3545,0.08282,-1
 .03388\H,0,-0.32734,0.91959,0.50346\H,0,1.99129,-0.92974,-0.55401\H,0,
 1.87437,0.91068,-0.5262\H,0,3.27571,0.10628,1.36003\H,0,1.90765,-0.928
 53,1.89903\H,0,1.7351,0.82346,1.95813\\Version=ES64L-G16RevA.03\State=
 1-A\HF=-119.0995682\RMSD=3.471e-09\Dipole=-0.0161575,0.0314401,-0.0096
 818\Quadrupole=-0.0191386,0.334132,-0.3149934,0.0135195,-0.0573068,-0.
 1441138\PG=C01 [X(C3H8)]\\@


 NOBODY LOSES ALL THE TIME
 I HAD AN UNCLE NAMED
 SOL WHO WAS A BORN FAILURE AND
 NEARLY EVERYBODY SAID HE SHOULD HAVE GONE
 INTO VAUDEVILLE PERHAPS BECAUSE MY UNCLE SOL COULD
 SING MCCANN HE WAS A DIVER ON XMAS EVE LIKE HELL ITSELF WHICH
 MAY OR MAY NOT ACCOUNT FOR THE FACT THAT MY UNCLE
 SOL INDULGED IN THAT POSSIBLY MOST INEXCUSABLE
 OF ALL TO USE A HIGHFALOOTIN PHRASE
 LUXURIES THAT IS OR TO
 WIT FARMING AND BE
 IT NEEDLESSLY
 ADDED
 MY UNCLE SOL'S FARM     
 FAILED BECAUSE THE CHICKENS
 ATE THE VEGETABLES SO
 MY UNCLE SOL HAD A
 CHICKEN FARM TILL THE
 SKUNKS ATE THE CHICKENS WHEN 
 MY UNCLE SOL
 HAD A SKUNK FARM BUT
 THE SKUNKS CAUGHT COLD AND
 DIED AND SO
 MY UNCLE SOL IMITATED THE
 SKUNKS IN A SUBTLE MANNER
 OR BY DROWNING HIMSELF IN THE WATERTANK
 BUT SOMEBODY WHO'D GIVEN MY UNCLE SOL A VICTOR     
 VICTROLA AND RECORDS WHILE HE LIVED PRESENTED TO
 HIM UPON THE AUSPICIOUS OCCASION OF HIS DECEASE A
 SCRUMPTIOUS NOT TO MENTION SPLENDIFEROUS FUNERAL WITH
 TALL BOYS IN BLACK GLOVES AND FLOWERS AND EVERYTHING AND
 I REMEMBER WE ALL CRIED LIKE THE MISSOURI
 WHEN MY UNCLE SOL'S COFFIN LURCHED BECAUSE     
 SOMEBODY PRESSED A BUTTON
 (AND DOWN WENT
 MY UNCLE
 SOL
 AND STARTED A WORM FARM)
           E. E. CUMMINGS
 Job cpu time:       0 days  0 hours  0 minutes 19.5 seconds.
 Elapsed time:       0 days  0 hours  0 minutes  9.8 seconds.
 File lengths (MBytes):  RWF=      6 Int=      0 D2E=      0 Chk=      1 Scr=      1
 Normal termination of Gaussian 16 at Fri Sep 22 16:30:49 2023.
