 Entering Gaussian System, Link 0=g16
 Initial command:
 /share/apps/gaussian/g16/l1.exe "/tmp/55568.mgr/Gau-354596.inp" -scrdir="/tmp/55568.mgr/"
 Entering Link 1 = /share/apps/gaussian/g16/l1.exe PID=    354597.
  
 Copyright (c) 1988,1990,1992,1993,1995,1998,2003,2009,2016,
            Gaussian, Inc.  All Rights Reserved.
  
 This is part of the Gaussian(R) 16 program.  It is based on
 the Gaussian(R) 09 system (copyright 2009, Gaussian, Inc.),
 the Gaussian(R) 03 system (copyright 2003, Gaussian, Inc.),
 the Gaussian(R) 98 system (copyright 1998, Gaussian, Inc.),
 the Gaussian(R) 94 system (copyright 1995, Gaussian, Inc.),
 the Gaussian 92(TM) system (copyright 1992, Gaussian, Inc.),
 the Gaussian 90(TM) system (copyright 1990, Gaussian, Inc.),
 the Gaussian 88(TM) system (copyright 1988, Gaussian, Inc.),
 the Gaussian 86(TM) system (copyright 1986, Carnegie Mellon
 University), and the Gaussian 82(TM) system (copyright 1983,
 Carnegie Mellon University). Gaussian is a federally registered
 trademark of Gaussian, Inc.
  
 This software contains proprietary and confidential information,
 including trade secrets, belonging to Gaussian, Inc.
  
 This software is provided under written license and may be
 used, copied, transmitted, or stored only in accord with that
 written license.
  
 The following legend is applicable only to US Government
 contracts under FAR:
  
                    RESTRICTED RIGHTS LEGEND
  
 Use, reproduction and disclosure by the US Government is
 subject to restrictions as set forth in subparagraphs (a)
 and (c) of the Commercial Computer Software - Restricted
 Rights clause in FAR 52.227-19.
  
 Gaussian, Inc.
 340 Quinnipiac St., Bldg. 40, Wallingford CT 06492
  
  
 ---------------------------------------------------------------
 Warning -- This program may not be used in any manner that
 competes with the business of Gaussian, Inc. or will provide
 assistance to any competitor of Gaussian, Inc.  The licensee
 of this program is prohibited from giving any competitor of
 Gaussian, Inc. access to this program.  By using this program,
 the user acknowledges that Gaussian, Inc. is engaged in the
 business of creating and licensing software in the field of
 computational chemistry and represents and warrants to the
 licensee that it is not a competitor of Gaussian, Inc. and that
 it will not use this program in any manner prohibited above.
 ---------------------------------------------------------------
  

 Cite this work as:
 Gaussian 16, Revision A.03,
 M. J. Frisch, G. W. Trucks, H. B. Schlegel, G. E. Scuseria, 
 M. A. Robb, J. R. Cheeseman, G. Scalmani, V. Barone, 
 G. A. Petersson, H. Nakatsuji, X. Li, M. Caricato, A. V. Marenich, 
 J. Bloino, B. G. Janesko, R. Gomperts, B. Mennucci, H. P. Hratchian, 
 J. V. Ortiz, A. F. Izmaylov, J. L. Sonnenberg, D. Williams-Young, 
 F. Ding, F. Lipparini, F. Egidi, J. Goings, B. Peng, A. Petrone, 
 T. Henderson, D. Ranasinghe, V. G. Zakrzewski, J. Gao, N. Rega, 
 G. Zheng, W. Liang, M. Hada, M. Ehara, K. Toyota, R. Fukuda, 
 J. Hasegawa, M. Ishida, T. Nakajima, Y. Honda, O. Kitao, H. Nakai, 
 T. Vreven, K. Throssell, J. A. Montgomery, Jr., J. E. Peralta, 
 F. Ogliaro, M. J. Bearpark, J. J. Heyd, E. N. Brothers, K. N. Kudin, 
 V. N. Staroverov, T. A. Keith, R. Kobayashi, J. Normand, 
 K. Raghavachari, A. P. Rendell, J. C. Burant, S. S. Iyengar, 
 J. Tomasi, M. Cossi, J. M. Millam, M. Klene, C. Adamo, R. Cammi, 
 J. W. Ochterski, R. L. Martin, K. Morokuma, O. Farkas, 
 J. B. Foresman, and D. J. Fox, Gaussian, Inc., Wallingford CT, 2016.
 
 ******************************************
 Gaussian 16:  ES64L-G16RevA.03 25-Dec-2016
                22-Sep-2023 
 ******************************************
 %nprocshared=2
 Will use up to    2 processors via shared memory.
 %mem=2GB
 ----------------
 # 6-31g(d) wb97x
 ----------------
 1/38=1,172=1/1;
 2/12=2,17=6,18=5,40=1/2;
 3/5=1,6=6,7=1,11=2,25=1,30=1,74=-57/1,2,3;
 4//1;
 5/5=2,38=5/2;
 6/7=2,8=2,9=2,10=2,28=1/1;
 99/5=1,9=1/99;
 -----------------------
 tmpdir/M2_conf_0_22.gjf
 -----------------------
 Symbolic Z-matrix:
 Charge =  0 Multiplicity = 1
 C                     0.        0.        0. 
 H                     1.114     0.        0. 
 H                    -0.40814   0.       -1.02718 
 H                    -0.31886  -1.02421   0.49998 
 H                    -0.36687   0.8676    0.583 
 
                          Input orientation:                          
 ---------------------------------------------------------------------
 Center     Atomic      Atomic             Coordinates (Angstroms)
 Number     Number       Type             X           Y           Z
 ---------------------------------------------------------------------
      1          6           0        0.000000    0.000000    0.000000
      2          1           0        1.114000    0.000000    0.000000
      3          1           0       -0.408140    0.000000   -1.027180
      4          1           0       -0.318860   -1.024210    0.499980
      5          1           0       -0.366870    0.867600    0.583000
 ---------------------------------------------------------------------
                    Distance matrix (angstroms):
                    1          2          3          4          5
     1  C    0.000000
     2  H    1.114000   0.000000
     3  H    1.105295   1.836303   0.000000
     4  H    1.183494   1.830867   1.840977   0.000000
     5  H    1.107796   1.812621   1.829512   1.894239   0.000000
 Stoichiometry    CH4
 Framework group  C1[X(CH4)]
 Deg. of freedom     9
 Full point group                 C1      NOp   1
 Largest Abelian subgroup         C1      NOp   1
 Largest concise Abelian subgroup C1      NOp   1
                         Standard orientation:                         
 ---------------------------------------------------------------------
 Center     Atomic      Atomic             Coordinates (Angstroms)
 Number     Number       Type             X           Y           Z
 ---------------------------------------------------------------------
      1          6           0       -0.015653    0.005699    0.001718
      2          1           0       -0.070335   -0.776445    0.793081
      3          1           0       -0.016430    1.023394    0.432966
      4          1           0        1.032893   -0.146865   -0.525476
      5          1           0       -0.852209   -0.134280   -0.710877
 ---------------------------------------------------------------------
 Rotational constants (GHZ):         152.5081833         147.5448108         143.6487006
 Standard basis: 6-31G(d) (6D, 7F)
 There are    23 symmetry adapted cartesian basis functions of A   symmetry.
 There are    23 symmetry adapted basis functions of A   symmetry.
    23 basis functions,    44 primitive gaussians,    23 cartesian basis functions
     5 alpha electrons        5 beta electrons
       nuclear repulsion energy        12.9968327279 Hartrees.
 NAtoms=    5 NActive=    5 NUniq=    5 SFac= 1.00D+00 NAtFMM=   60 NAOKFM=F Big=F
 Integral buffers will be    131072 words long.
 Raffenetti 2 integral format.
 Two-electron integral symmetry is turned on.
 One-electron integrals computed using PRISM.
 NBasis=    23 RedAO= T EigKep=  2.00D-02  NBF=    23
 NBsUse=    23 1.00D-06 EigRej= -1.00D+00 NBFU=    23
 ExpMin= 1.61D-01 ExpMax= 3.05D+03 ExpMxC= 4.57D+02 IAcc=3 IRadAn=         5 AccDes= 0.00D+00
 Harris functional with IExCor= 4538 and IRadAn=       5 diagonalized for initial guess.
 HarFok:  IExCor= 4538 AccDes= 0.00D+00 IRadAn=         5 IDoV= 1 UseB2=F ITyADJ=14
 ICtDFT=  3500011 ScaDFX=  1.000000  1.000000  1.000000  1.000000
 FoFCou: FMM=F IPFlag=           0 FMFlag=      100000 FMFlg1=           0
         NFxFlg=           0 DoJE=T BraDBF=F KetDBF=T FulRan=T
         wScrn=  0.000000 ICntrl=       500 IOpCl=  0 I1Cent=   200000004 NGrid=           0
         NMat0=    1 NMatS0=      1 NMatT0=    0 NMatD0=    1 NMtDS0=    0 NMtDT0=    0
 Petite list used in FoFCou.
 Keep R1 ints in memory in canonical form, NReq=1800744.
 Requested convergence on RMS density matrix=1.00D-08 within 128 cycles.
 Requested convergence on MAX density matrix=1.00D-06.
 Requested convergence on             energy=1.00D-06.
 No special actions if energy rises.
 Integral accuracy reduced to 1.0D-05 until final iterations.
 Initial convergence to 1.0D-05 achieved.  Increase integral accuracy.
 SCF Done:  E(RwB97X) =  -40.4940737678     A.U. after   11 cycles
            NFock= 11  Conv=0.21D-08     -V/T= 2.0151

 **********************************************************************

            Population analysis using the SCF density.

 **********************************************************************

 Orbital symmetries:
       Occupied  (A) (A) (A) (A) (A)
       Virtual   (A) (A) (A) (A) (A) (A) (A) (A) (A) (A) (A) (A)
                 (A) (A) (A) (A) (A) (A)
 The electronic state is 1-A.
 Alpha  occ. eigenvalues --  -10.26382  -0.80819  -0.49861  -0.49432  -0.47403
 Alpha virt. eigenvalues --    0.20577   0.25124   0.26992   0.27321   0.64317
 Alpha virt. eigenvalues --    0.64660   0.66287   0.96150   1.00465   1.01200
 Alpha virt. eigenvalues --    1.02888   1.19724   1.76190   1.76823   2.27051
 Alpha virt. eigenvalues --    2.32886   2.33322   4.28409
          Condensed to atoms (all electrons):
               1          2          3          4          5
     1  C    5.131501   0.380890   0.382673   0.373040   0.382900
     2  H    0.380890   0.525963  -0.021978  -0.025927  -0.025047
     3  H    0.382673  -0.021978   0.517442  -0.024885  -0.023165
     4  H    0.373040  -0.025927  -0.024885   0.552242  -0.019693
     5  H    0.382900  -0.025047  -0.023165  -0.019693   0.515235
 Mulliken charges:
               1
     1  C   -0.651004
     2  H    0.166098
     3  H    0.169913
     4  H    0.145223
     5  H    0.169770
 Sum of Mulliken charges =   0.00000
 Mulliken charges with hydrogens summed into heavy atoms:
               1
     1  C    0.000000
 Electronic spatial extent (au):  <R**2>=             36.7773
 Charge=              0.0000 electrons
 Dipole moment (field-independent basis, Debye):
    X=             -0.0206    Y=             -0.0028    Z=              0.0320  Tot=              0.0382
 Quadrupole moment (field-independent basis, Debye-Ang):
   XX=             -8.2876   YY=             -8.2773   ZZ=             -8.4643
   XY=              0.0259   XZ=              0.1032   YZ=              0.0046
 Traceless Quadrupole moment (field-independent basis, Debye-Ang):
   XX=              0.0555   YY=              0.0657   ZZ=             -0.1212
   XY=              0.0259   XZ=              0.1032   YZ=              0.0046
 Octapole moment (field-independent basis, Debye-Ang**2):
  XXX=              0.1139  YYY=              0.5057  ZZZ=              0.1742  XYY=             -0.0885
  XXY=             -0.1877  XXZ=             -0.7558  XZZ=             -0.2409  YZZ=             -0.2837
  YYZ=              0.7332  XYZ=              0.0134
 Hexadecapole moment (field-independent basis, Debye-Ang**3):
 XXXX=            -16.2132 YYYY=            -15.4018 ZZZZ=            -16.1628 XXXY=             -0.0337
 XXXZ=              0.0652 YYYX=              0.0735 YYYZ=              0.1133 ZZZX=              0.3557
 ZZZY=             -0.2554 XXYY=             -5.8165 XXZZ=             -5.1083 YYZZ=             -5.0130
 XXYZ=              0.1718 YYXZ=              0.0289 ZZXY=              0.0719
 N-N= 1.299683272790D+01 E-N=-1.188754523923D+02  KE= 3.989258181057D+01
 1\1\GINC-NODE67\SP\RwB97X\6-31G(d)\C1H4\YANZ\22-Sep-2023\0\\# 6-31g(d)
  wb97x\\tmpdir/M2_conf_0_22.gjf\\0,1\C,0,0.,0.,0.\H,0,1.114,0.,0.\H,0,
 -0.40814,0.,-1.02718\H,0,-0.31886,-1.02421,0.49998\H,0,-0.36687,0.8676
 ,0.583\\Version=ES64L-G16RevA.03\State=1-A\HF=-40.4940738\RMSD=2.130e-
 09\Dipole=0.0101234,0.0074633,-0.0082264\Quadrupole=-0.0287128,0.04769
 13,-0.0189785,-0.0360632,0.0734301,0.0628395\PG=C01 [X(C1H4)]\\@


 HE THAT WALD REACHE THE SWEITE ROSE
 SULD NOW AND THEN BE SCRATCHED WT THE SCHARPE BREERES.
 -- PROVERBS AND REASONS OF THE YEAR 1585
           AS REPRINTED IN PAISLEY MAGAZINE 1828.
 Job cpu time:       0 days  0 hours  0 minutes  5.6 seconds.
 Elapsed time:       0 days  0 hours  0 minutes  2.8 seconds.
 File lengths (MBytes):  RWF=      6 Int=      0 D2E=      0 Chk=      1 Scr=      1
 Normal termination of Gaussian 16 at Fri Sep 22 16:30:18 2023.
