 Entering Gaussian System, Link 0=g16
 Initial command:
 /share/apps/gaussian/g16/l1.exe "/tmp/55568.mgr/Gau-354833.inp" -scrdir="/tmp/55568.mgr/"
 Entering Link 1 = /share/apps/gaussian/g16/l1.exe PID=    354835.
  
 Copyright (c) 1988,1990,1992,1993,1995,1998,2003,2009,2016,
            Gaussian, Inc.  All Rights Reserved.
  
 This is part of the Gaussian(R) 16 program.  It is based on
 the Gaussian(R) 09 system (copyright 2009, Gaussian, Inc.),
 the Gaussian(R) 03 system (copyright 2003, Gaussian, Inc.),
 the Gaussian(R) 98 system (copyright 1998, Gaussian, Inc.),
 the Gaussian(R) 94 system (copyright 1995, Gaussian, Inc.),
 the Gaussian 92(TM) system (copyright 1992, Gaussian, Inc.),
 the Gaussian 90(TM) system (copyright 1990, Gaussian, Inc.),
 the Gaussian 88(TM) system (copyright 1988, Gaussian, Inc.),
 the Gaussian 86(TM) system (copyright 1986, Carnegie Mellon
 University), and the Gaussian 82(TM) system (copyright 1983,
 Carnegie Mellon University). Gaussian is a federally registered
 trademark of Gaussian, Inc.
  
 This software contains proprietary and confidential information,
 including trade secrets, belonging to Gaussian, Inc.
  
 This software is provided under written license and may be
 used, copied, transmitted, or stored only in accord with that
 written license.
  
 The following legend is applicable only to US Government
 contracts under FAR:
  
                    RESTRICTED RIGHTS LEGEND
  
 Use, reproduction and disclosure by the US Government is
 subject to restrictions as set forth in subparagraphs (a)
 and (c) of the Commercial Computer Software - Restricted
 Rights clause in FAR 52.227-19.
  
 Gaussian, Inc.
 340 Quinnipiac St., Bldg. 40, Wallingford CT 06492
  
  
 ---------------------------------------------------------------
 Warning -- This program may not be used in any manner that
 competes with the business of Gaussian, Inc. or will provide
 assistance to any competitor of Gaussian, Inc.  The licensee
 of this program is prohibited from giving any competitor of
 Gaussian, Inc. access to this program.  By using this program,
 the user acknowledges that Gaussian, Inc. is engaged in the
 business of creating and licensing software in the field of
 computational chemistry and represents and warrants to the
 licensee that it is not a competitor of Gaussian, Inc. and that
 it will not use this program in any manner prohibited above.
 ---------------------------------------------------------------
  

 Cite this work as:
 Gaussian 16, Revision A.03,
 M. J. Frisch, G. W. Trucks, H. B. Schlegel, G. E. Scuseria, 
 M. A. Robb, J. R. Cheeseman, G. Scalmani, V. Barone, 
 G. A. Petersson, H. Nakatsuji, X. Li, M. Caricato, A. V. Marenich, 
 J. Bloino, B. G. Janesko, R. Gomperts, B. Mennucci, H. P. Hratchian, 
 J. V. Ortiz, A. F. Izmaylov, J. L. Sonnenberg, D. Williams-Young, 
 F. Ding, F. Lipparini, F. Egidi, J. Goings, B. Peng, A. Petrone, 
 T. Henderson, D. Ranasinghe, V. G. Zakrzewski, J. Gao, N. Rega, 
 G. Zheng, W. Liang, M. Hada, M. Ehara, K. Toyota, R. Fukuda, 
 J. Hasegawa, M. Ishida, T. Nakajima, Y. Honda, O. Kitao, H. Nakai, 
 T. Vreven, K. Throssell, J. A. Montgomery, Jr., J. E. Peralta, 
 F. Ogliaro, M. J. Bearpark, J. J. Heyd, E. N. Brothers, K. N. Kudin, 
 V. N. Staroverov, T. A. Keith, R. Kobayashi, J. Normand, 
 K. Raghavachari, A. P. Rendell, J. C. Burant, S. S. Iyengar, 
 J. Tomasi, M. Cossi, J. M. Millam, M. Klene, C. Adamo, R. Cammi, 
 J. W. Ochterski, R. L. Martin, K. Morokuma, O. Farkas, 
 J. B. Foresman, and D. J. Fox, Gaussian, Inc., Wallingford CT, 2016.
 
 ******************************************
 Gaussian 16:  ES64L-G16RevA.03 25-Dec-2016
                22-Sep-2023 
 ******************************************
 %nprocshared=2
 Will use up to    2 processors via shared memory.
 %mem=2GB
 ----------------
 # 6-31g(d) wb97x
 ----------------
 1/38=1,172=1/1;
 2/12=2,17=6,18=5,40=1/2;
 3/5=1,6=6,7=1,11=2,25=1,30=1,74=-57/1,2,3;
 4//1;
 5/5=2,38=5/2;
 6/7=2,8=2,9=2,10=2,28=1/1;
 99/5=1,9=1/99;
 -----------------------
 tmpdir/M2_conf_0_42.gjf
 -----------------------
 Symbolic Z-matrix:
 Charge =  0 Multiplicity = 1
 C                     0.        0.        0. 
 C                     1.5303    0.        0. 
 C                     2.29265   0.        1.3491 
 H                    -0.40545  -0.88914   0.51645 
 H                    -0.43337  -0.01076  -1.10125 
 H                    -0.36293   0.93051   0.45103 
 H                     2.0739    0.89126  -0.49648 
 H                     1.88752  -0.93373  -0.45885 
 H                     1.93199  -0.7835    2.00882 
 H                     3.42048  -0.0888    1.05667 
 H                     2.1404    0.99626   1.80514 
 
                          Input orientation:                          
 ---------------------------------------------------------------------
 Center     Atomic      Atomic             Coordinates (Angstroms)
 Number     Number       Type             X           Y           Z
 ---------------------------------------------------------------------
      1          6           0        0.000000    0.000000    0.000000
      2          6           0        1.530300    0.000000    0.000000
      3          6           0        2.292650    0.000000    1.349100
      4          1           0       -0.405450   -0.889140    0.516450
      5          1           0       -0.433370   -0.010760   -1.101250
      6          1           0       -0.362930    0.930510    0.451030
      7          1           0        2.073900    0.891260   -0.496480
      8          1           0        1.887520   -0.933730   -0.458850
      9          1           0        1.931990   -0.783500    2.008820
     10          1           0        3.420480   -0.088800    1.056670
     11          1           0        2.140400    0.996260    1.805140
 ---------------------------------------------------------------------
                    Distance matrix (angstroms):
                    1          2          3          4          5
     1  C    0.000000
     2  C    1.530300   0.000000
     3  C    2.660134   1.549596   0.000000
     4  H    1.105296   2.191898   2.960341   0.000000
     5  H    1.183502   2.251414   3.665449   1.841001   0.000000
     6  H    1.095899   2.157220   2.953724   1.821322   1.816734
     7  H    2.311255   1.156001   2.061155   3.216058   2.732360
     8  H    2.155256   1.100001   2.074769   2.492170   2.578969
     9  H    2.895137   2.193305   1.085900   2.775239   3.983038
    10  H    3.581078   2.167306   1.168504   3.945899   4.417564
    11  H    2.971931   2.150183   1.106204   3.420060   4.010671
                    6          7          8          9         10
     6  H    0.000000
     7  H    2.614853   0.000000
     8  H    3.060686   1.834868   0.000000
     9  H    3.260552   3.016867   2.472639   0.000000
    10  H    3.964843   2.277294   2.315313   1.898631   0.000000
    11  H    2.846858   2.304973   2.985709   1.803459   1.837435
                   11
    11  H    0.000000
 Stoichiometry    C3H8
 Framework group  C1[X(C3H8)]
 Deg. of freedom    27
 Full point group                 C1      NOp   1
 Largest Abelian subgroup         C1      NOp   1
 Largest concise Abelian subgroup C1      NOp   1
                         Standard orientation:                         
 ---------------------------------------------------------------------
 Center     Atomic      Atomic             Coordinates (Angstroms)
 Number     Number       Type             X           Y           Z
 ---------------------------------------------------------------------
      1          6           0       -1.335826   -0.231605    0.012800
      2          6           0       -0.004430    0.522171   -0.019215
      3          6           0        1.323870   -0.275773   -0.006819
      4          1           0       -1.440971   -0.905950   -0.856617
      5          1           0       -2.255812    0.512495   -0.012027
      6          1           0       -1.421946   -0.776075    0.959969
      7          1           0        0.230769    1.247254    0.849849
      8          1           0        0.072842    1.070539   -0.969648
      9          1           0        1.329147   -1.049652   -0.768569
     10          1           0        2.160257    0.531578   -0.125319
     11          1           0        1.424032   -0.718947    1.001769
 ---------------------------------------------------------------------
 Rotational constants (GHZ):          31.3193881           7.7434862           7.0724764
 Standard basis: 6-31G(d) (6D, 7F)
 There are    61 symmetry adapted cartesian basis functions of A   symmetry.
 There are    61 symmetry adapted basis functions of A   symmetry.
    61 basis functions,   116 primitive gaussians,    61 cartesian basis functions
    13 alpha electrons       13 beta electrons
       nuclear repulsion energy        80.9755263280 Hartrees.
 NAtoms=   11 NActive=   11 NUniq=   11 SFac= 1.00D+00 NAtFMM=   60 NAOKFM=F Big=F
 Integral buffers will be    131072 words long.
 Raffenetti 2 integral format.
 Two-electron integral symmetry is turned on.
 One-electron integrals computed using PRISM.
 NBasis=    61 RedAO= T EigKep=  6.38D-03  NBF=    61
 NBsUse=    61 1.00D-06 EigRej= -1.00D+00 NBFU=    61
 ExpMin= 1.61D-01 ExpMax= 3.05D+03 ExpMxC= 4.57D+02 IAcc=3 IRadAn=         5 AccDes= 0.00D+00
 Harris functional with IExCor= 4538 and IRadAn=       5 diagonalized for initial guess.
 HarFok:  IExCor= 4538 AccDes= 0.00D+00 IRadAn=         5 IDoV= 1 UseB2=F ITyADJ=14
 ICtDFT=  3500011 ScaDFX=  1.000000  1.000000  1.000000  1.000000
 FoFCou: FMM=F IPFlag=           0 FMFlag=      100000 FMFlg1=           0
         NFxFlg=           0 DoJE=T BraDBF=F KetDBF=T FulRan=T
         wScrn=  0.000000 ICntrl=       500 IOpCl=  0 I1Cent=   200000004 NGrid=           0
         NMat0=    1 NMatS0=      1 NMatT0=    0 NMatD0=    1 NMtDS0=    0 NMtDT0=    0
 Petite list used in FoFCou.
 Keep R1 ints in memory in canonical form, NReq=5346468.
 Requested convergence on RMS density matrix=1.00D-08 within 128 cycles.
 Requested convergence on MAX density matrix=1.00D-06.
 Requested convergence on             energy=1.00D-06.
 No special actions if energy rises.
 Integral accuracy reduced to 1.0D-05 until final iterations.
 Initial convergence to 1.0D-05 achieved.  Increase integral accuracy.
 SCF Done:  E(RwB97X) =  -119.085818507     A.U. after   12 cycles
            NFock= 12  Conv=0.45D-08     -V/T= 2.0129

 **********************************************************************

            Population analysis using the SCF density.

 **********************************************************************

 Orbital symmetries:
       Occupied  (A) (A) (A) (A) (A) (A) (A) (A) (A) (A) (A) (A)
                 (A)
       Virtual   (A) (A) (A) (A) (A) (A) (A) (A) (A) (A) (A) (A)
                 (A) (A) (A) (A) (A) (A) (A) (A) (A) (A) (A) (A)
                 (A) (A) (A) (A) (A) (A) (A) (A) (A) (A) (A) (A)
                 (A) (A) (A) (A) (A) (A) (A) (A) (A) (A) (A) (A)
 The electronic state is 1-A.
 Alpha  occ. eigenvalues --  -10.26860 -10.26797 -10.26200  -0.90238  -0.80173
 Alpha  occ. eigenvalues --   -0.68812  -0.56869  -0.53101  -0.49900  -0.49044
 Alpha  occ. eigenvalues --   -0.43917  -0.41965  -0.40938
 Alpha virt. eigenvalues --    0.17377   0.22987   0.23563   0.24534   0.26782
 Alpha virt. eigenvalues --    0.27148   0.27939   0.29395   0.31152   0.36533
 Alpha virt. eigenvalues --    0.61529   0.62549   0.66470   0.66836   0.69513
 Alpha virt. eigenvalues --    0.77871   0.81684   0.84438   0.88399   0.94813
 Alpha virt. eigenvalues --    0.97035   0.98386   1.01868   1.03652   1.06127
 Alpha virt. eigenvalues --    1.07591   1.08330   1.15200   1.44649   1.53491
 Alpha virt. eigenvalues --    1.56666   1.68880   1.83594   1.99243   2.05621
 Alpha virt. eigenvalues --    2.08230   2.15918   2.17435   2.29204   2.33062
 Alpha virt. eigenvalues --    2.36108   2.45827   2.51621   2.71048   2.75809
 Alpha virt. eigenvalues --    4.23287   4.39590   4.57099
          Condensed to atoms (all electrons):
               1          2          3          4          5          6
     1  C    5.069702   0.360164  -0.042961   0.382696   0.374685   0.381882
     2  C    0.360164   4.989522   0.354468  -0.033386  -0.026838  -0.039079
     3  C   -0.042961   0.354468   5.113534  -0.003101   0.003339  -0.002611
     4  H    0.382696  -0.033386  -0.003101   0.543949  -0.026932  -0.024707
     5  H    0.374685  -0.026838   0.003339  -0.026932   0.569582  -0.028477
     6  H    0.381882  -0.039079  -0.002611  -0.024707  -0.028477   0.550740
     7  H   -0.027236   0.384500  -0.054583   0.003396  -0.002317  -0.002749
     8  H   -0.041671   0.391077  -0.052911  -0.003242  -0.003355   0.004883
     9  H   -0.001592  -0.036989   0.382142   0.003287  -0.000065  -0.000193
    10  H    0.003829  -0.033980   0.378430  -0.000032  -0.000101  -0.000068
    11  H   -0.002306  -0.041107   0.381035  -0.000167  -0.000095   0.003047
               7          8          9         10         11
     1  C   -0.027236  -0.041671  -0.001592   0.003829  -0.002306
     2  C    0.384500   0.391077  -0.036989  -0.033980  -0.041107
     3  C   -0.054583  -0.052911   0.382142   0.378430   0.381035
     4  H    0.003396  -0.003242   0.003287  -0.000032  -0.000167
     5  H   -0.002317  -0.003355  -0.000065  -0.000101  -0.000095
     6  H   -0.002749   0.004883  -0.000193  -0.000068   0.003047
     7  H    0.595926  -0.027329   0.005644  -0.003122  -0.006679
     8  H   -0.027329   0.589972  -0.003480  -0.005719   0.006093
     9  H    0.005644  -0.003480   0.541823  -0.019596  -0.027204
    10  H   -0.003122  -0.005719  -0.019596   0.567217  -0.027317
    11  H   -0.006679   0.006093  -0.027204  -0.027317   0.565432
 Mulliken charges:
               1
     1  C   -0.457192
     2  C   -0.268350
     3  C   -0.456781
     4  H    0.158239
     5  H    0.140574
     6  H    0.157331
     7  H    0.134548
     8  H    0.145682
     9  H    0.156223
    10  H    0.140459
    11  H    0.149267
 Sum of Mulliken charges =   0.00000
 Mulliken charges with hydrogens summed into heavy atoms:
               1
     1  C   -0.001048
     2  C    0.011880
     3  C   -0.010832
 Electronic spatial extent (au):  <R**2>=            236.3735
 Charge=              0.0000 electrons
 Dipole moment (field-independent basis, Debye):
    X=             -0.0346    Y=             -0.0293    Z=             -0.0257  Tot=              0.0521
 Quadrupole moment (field-independent basis, Debye-Ang):
   XX=            -22.3032   YY=            -21.9718   ZZ=            -21.1828
   XY=              0.5209   XZ=              0.1615   YZ=              0.2093
 Traceless Quadrupole moment (field-independent basis, Debye-Ang):
   XX=             -0.4839   YY=             -0.1525   ZZ=              0.6364
   XY=              0.5209   XZ=              0.1615   YZ=              0.2093
 Octapole moment (field-independent basis, Debye-Ang**2):
  XXX=             -1.4256  YYY=             -0.5824  ZZZ=              0.1707  XYY=              0.4300
  XXY=              1.8960  XXZ=             -0.0818  XZZ=             -0.0093  YZZ=             -0.7727
  YYZ=             -0.3570  XYZ=              0.0782
 Hexadecapole moment (field-independent basis, Debye-Ang**3):
 XXXX=           -222.3106 YYYY=            -66.5623 ZZZZ=            -43.1852 XXXY=              1.1801
 XXXZ=              0.1331 YYYX=              0.7795 YYYZ=              1.0196 ZZZX=              0.4727
 ZZZY=             -0.2109 XXYY=            -46.3951 XXZZ=            -44.2894 YYZZ=            -16.4836
 XXYZ=              0.1640 YYXZ=              0.0103 ZZXY=              0.6717
 N-N= 8.097552632799D+01 E-N=-4.361826371701D+02  KE= 1.175689730664D+02
 1\1\GINC-NODE67\SP\RwB97X\6-31G(d)\C3H8\YANZ\22-Sep-2023\0\\# 6-31g(d)
  wb97x\\tmpdir/M2_conf_0_42.gjf\\0,1\C,0,0.,0.,0.\C,0,1.5303,0.,0.\C,0
 ,2.29265,0.,1.3491\H,0,-0.40545,-0.88914,0.51645\H,0,-0.43337,-0.01076
 ,-1.10125\H,0,-0.36293,0.93051,0.45103\H,0,2.0739,0.89126,-0.49648\H,0
 ,1.88752,-0.93373,-0.45885\H,0,1.93199,-0.7835,2.00882\H,0,3.42048,-0.
 0888,1.05667\H,0,2.1404,0.99626,1.80514\\Version=ES64L-G16RevA.03\Stat
 e=1-A\HF=-119.0858185\RMSD=4.486e-09\Dipole=-0.017291,-0.0105311,0.003
 1017\Quadrupole=0.0246901,0.4836046,-0.5082947,0.1781199,-0.29956,-0.0
 618207\PG=C01 [X(C3H8)]\\@


 I WOULD TAKE COUNSEL OF MYSELF.
 I WOULD STOP AND LOOK WITHIN
 AND LOOKING WITHIN, LOOK BACK, ALSO
 THAT I MAY LOOK AHEAD WITH CLEARER UNDERSTANDING
 OF THE WAY I HAVE BEEN MOVING, AND IN WHAT DIRECTION.
 I NEED TO KNOW IF I AM GOING FORWARD OR RETREATING,
 WHETHER I HAVE BEEN WASTING, OR ENJOYING
 THE PRECIOUS MOMENTS OF LIFE.  THERE HAVE BEEN FRICTIONS,
 ANNOYANCES AND SOMETIMES WRATH,
 BUT WERE THEY BECAUSE I WAS RIGHT AND OTHERS WRONG.....
 HAVE I HAD MY THOUGHTS TOO SHARPLY FOCUSED
 ON THAT WHICH PLEASED ME, SERVED MY SELF-ESTEEM,
 UNDERGIRDED MY SECURITY,
 OF WHICH I DID NOT INQUIRE WHETHER IT SERVED OR HAMPERED OTHERS.....
 HAVE I BEEN TRYING TO STOP THE CLOCK
 TO HOLD THE WORLD
 IN PERPETUATION OF WHAT WAS AN IS ALREADY SLIPPING AWAY.....
 HAVE I BEEN CRITICAL OF OTHERS FOR WHAT REALLY NEEDED CHANGING IN ME...
 LET ME INDEED TAKE COUNSEL OF MYSELF
 AND SET MY DIRECTIONS STRAIGHT.

                          R.T. WESTON AS ADAPTED BY D. OSBORN 1967
 Job cpu time:       0 days  0 hours  0 minutes 18.9 seconds.
 Elapsed time:       0 days  0 hours  0 minutes  9.6 seconds.
 File lengths (MBytes):  RWF=      6 Int=      0 D2E=      0 Chk=      1 Scr=      1
 Normal termination of Gaussian 16 at Fri Sep 22 16:30:33 2023.
