 Entering Gaussian System, Link 0=g16
 Initial command:
 /share/apps/gaussian/g16/l1.exe "/tmp/55568.mgr/Gau-356395.inp" -scrdir="/tmp/55568.mgr/"
 Entering Link 1 = /share/apps/gaussian/g16/l1.exe PID=    356396.
  
 Copyright (c) 1988,1990,1992,1993,1995,1998,2003,2009,2016,
            Gaussian, Inc.  All Rights Reserved.
  
 This is part of the Gaussian(R) 16 program.  It is based on
 the Gaussian(R) 09 system (copyright 2009, Gaussian, Inc.),
 the Gaussian(R) 03 system (copyright 2003, Gaussian, Inc.),
 the Gaussian(R) 98 system (copyright 1998, Gaussian, Inc.),
 the Gaussian(R) 94 system (copyright 1995, Gaussian, Inc.),
 the Gaussian 92(TM) system (copyright 1992, Gaussian, Inc.),
 the Gaussian 90(TM) system (copyright 1990, Gaussian, Inc.),
 the Gaussian 88(TM) system (copyright 1988, Gaussian, Inc.),
 the Gaussian 86(TM) system (copyright 1986, Carnegie Mellon
 University), and the Gaussian 82(TM) system (copyright 1983,
 Carnegie Mellon University). Gaussian is a federally registered
 trademark of Gaussian, Inc.
  
 This software contains proprietary and confidential information,
 including trade secrets, belonging to Gaussian, Inc.
  
 This software is provided under written license and may be
 used, copied, transmitted, or stored only in accord with that
 written license.
  
 The following legend is applicable only to US Government
 contracts under FAR:
  
                    RESTRICTED RIGHTS LEGEND
  
 Use, reproduction and disclosure by the US Government is
 subject to restrictions as set forth in subparagraphs (a)
 and (c) of the Commercial Computer Software - Restricted
 Rights clause in FAR 52.227-19.
  
 Gaussian, Inc.
 340 Quinnipiac St., Bldg. 40, Wallingford CT 06492
  
  
 ---------------------------------------------------------------
 Warning -- This program may not be used in any manner that
 competes with the business of Gaussian, Inc. or will provide
 assistance to any competitor of Gaussian, Inc.  The licensee
 of this program is prohibited from giving any competitor of
 Gaussian, Inc. access to this program.  By using this program,
 the user acknowledges that Gaussian, Inc. is engaged in the
 business of creating and licensing software in the field of
 computational chemistry and represents and warrants to the
 licensee that it is not a competitor of Gaussian, Inc. and that
 it will not use this program in any manner prohibited above.
 ---------------------------------------------------------------
  

 Cite this work as:
 Gaussian 16, Revision A.03,
 M. J. Frisch, G. W. Trucks, H. B. Schlegel, G. E. Scuseria, 
 M. A. Robb, J. R. Cheeseman, G. Scalmani, V. Barone, 
 G. A. Petersson, H. Nakatsuji, X. Li, M. Caricato, A. V. Marenich, 
 J. Bloino, B. G. Janesko, R. Gomperts, B. Mennucci, H. P. Hratchian, 
 J. V. Ortiz, A. F. Izmaylov, J. L. Sonnenberg, D. Williams-Young, 
 F. Ding, F. Lipparini, F. Egidi, J. Goings, B. Peng, A. Petrone, 
 T. Henderson, D. Ranasinghe, V. G. Zakrzewski, J. Gao, N. Rega, 
 G. Zheng, W. Liang, M. Hada, M. Ehara, K. Toyota, R. Fukuda, 
 J. Hasegawa, M. Ishida, T. Nakajima, Y. Honda, O. Kitao, H. Nakai, 
 T. Vreven, K. Throssell, J. A. Montgomery, Jr., J. E. Peralta, 
 F. Ogliaro, M. J. Bearpark, J. J. Heyd, E. N. Brothers, K. N. Kudin, 
 V. N. Staroverov, T. A. Keith, R. Kobayashi, J. Normand, 
 K. Raghavachari, A. P. Rendell, J. C. Burant, S. S. Iyengar, 
 J. Tomasi, M. Cossi, J. M. Millam, M. Klene, C. Adamo, R. Cammi, 
 J. W. Ochterski, R. L. Martin, K. Morokuma, O. Farkas, 
 J. B. Foresman, and D. J. Fox, Gaussian, Inc., Wallingford CT, 2016.
 
 ******************************************
 Gaussian 16:  ES64L-G16RevA.03 25-Dec-2016
                22-Sep-2023 
 ******************************************
 %nprocshared=2
 Will use up to    2 processors via shared memory.
 %mem=2GB
 ----------------
 # 6-31g(d) wb97x
 ----------------
 1/38=1,172=1/1;
 2/12=2,17=6,18=5,40=1/2;
 3/5=1,6=6,7=1,11=2,25=1,30=1,74=-57/1,2,3;
 4//1;
 5/5=2,38=5/2;
 6/7=2,8=2,9=2,10=2,28=1/1;
 99/5=1,9=1/99;
 -----------------------
 tmpdir/M2_conf_1_25.gjf
 -----------------------
 Symbolic Z-matrix:
 Charge =  0 Multiplicity = 1
 C                     0.        0.        0. 
 C                     1.5268    0.        0. 
 H                     1.90826   0.        1.02737 
 H                    -0.44507  -0.98154   0.12452 
 H                    -0.40104   0.6612    0.77553 
 H                    -0.37635   0.41717  -0.94674 
 H                     1.87381   1.02413  -0.48105 
 H                     1.93317  -0.86763  -0.55615 
 
                          Input orientation:                          
 ---------------------------------------------------------------------
 Center     Atomic      Atomic             Coordinates (Angstroms)
 Number     Number       Type             X           Y           Z
 ---------------------------------------------------------------------
      1          6           0        0.000000    0.000000    0.000000
      2          6           0        1.526800    0.000000    0.000000
      3          1           0        1.908260    0.000000    1.027370
      4          1           0       -0.445070   -0.981540    0.124520
      5          1           0       -0.401040    0.661200    0.775530
      6          1           0       -0.376350    0.417170   -0.946740
      7          1           0        1.873810    1.024130   -0.481050
      8          1           0        1.933170   -0.867630   -0.556150
 ---------------------------------------------------------------------
                    Distance matrix (angstroms):
                    1          2          3          4          5
     1  C    0.000000
     2  C    1.526800   0.000000
     3  H    2.167244   1.095902   0.000000
     4  H    1.084902   2.206173   2.704944   0.000000
     5  H    1.095201   2.180642   2.415259   1.767582   0.000000
     6  H    1.100903   2.166178   3.048046   1.763153   1.739648
     7  H    2.188930   1.183498   1.823557   3.125161   2.624053
     8  H    2.190715   1.107800   1.805807   2.476351   3.091800
                    6          7          8
     6  H    0.000000
     7  H    2.376655   0.000000
     8  H    2.671545   1.894180   0.000000
 Stoichiometry    C2H6
 Framework group  C1[X(C2H6)]
 Deg. of freedom    18
 Full point group                 C1      NOp   1
 Largest Abelian subgroup         C1      NOp   1
 Largest concise Abelian subgroup C1      NOp   1
                         Standard orientation:                         
 ---------------------------------------------------------------------
 Center     Atomic      Atomic             Coordinates (Angstroms)
 Number     Number       Type             X           Y           Z
 ---------------------------------------------------------------------
      1          6           0        0.758593    0.010095    0.003676
      2          6           0       -0.768182    0.018395    0.001107
      3          1           0       -1.151070    0.074195    1.026429
      4          1           0        1.208897    0.994370    0.077452
      5          1           0        1.154897   -0.611813    0.813391
      6          1           0        1.133957   -0.458054   -0.919322
      7          1           0       -1.120165   -1.027589   -0.426319
      8          1           0       -1.168983    0.857950   -0.600330
 ---------------------------------------------------------------------
 Rotational constants (GHZ):          77.3464149          20.0468854          19.8359193
 Standard basis: 6-31G(d) (6D, 7F)
 There are    42 symmetry adapted cartesian basis functions of A   symmetry.
 There are    42 symmetry adapted basis functions of A   symmetry.
    42 basis functions,    80 primitive gaussians,    42 cartesian basis functions
     9 alpha electrons        9 beta electrons
       nuclear repulsion energy        41.8901439169 Hartrees.
 NAtoms=    8 NActive=    8 NUniq=    8 SFac= 1.00D+00 NAtFMM=   60 NAOKFM=F Big=F
 Integral buffers will be    131072 words long.
 Raffenetti 2 integral format.
 Two-electron integral symmetry is turned on.
 One-electron integrals computed using PRISM.
 NBasis=    42 RedAO= T EigKep=  8.39D-03  NBF=    42
 NBsUse=    42 1.00D-06 EigRej= -1.00D+00 NBFU=    42
 ExpMin= 1.61D-01 ExpMax= 3.05D+03 ExpMxC= 4.57D+02 IAcc=3 IRadAn=         5 AccDes= 0.00D+00
 Harris functional with IExCor= 4538 and IRadAn=       5 diagonalized for initial guess.
 HarFok:  IExCor= 4538 AccDes= 0.00D+00 IRadAn=         5 IDoV= 1 UseB2=F ITyADJ=14
 ICtDFT=  3500011 ScaDFX=  1.000000  1.000000  1.000000  1.000000
 FoFCou: FMM=F IPFlag=           0 FMFlag=      100000 FMFlg1=           0
         NFxFlg=           0 DoJE=T BraDBF=F KetDBF=T FulRan=T
         wScrn=  0.000000 ICntrl=       500 IOpCl=  0 I1Cent=   200000004 NGrid=           0
         NMat0=    1 NMatS0=      1 NMatT0=    0 NMatD0=    1 NMtDS0=    0 NMtDT0=    0
 Petite list used in FoFCou.
 Keep R1 ints in memory in canonical form, NReq=2543288.
 Requested convergence on RMS density matrix=1.00D-08 within 128 cycles.
 Requested convergence on MAX density matrix=1.00D-06.
 Requested convergence on             energy=1.00D-06.
 No special actions if energy rises.
 Integral accuracy reduced to 1.0D-05 until final iterations.
 Initial convergence to 1.0D-05 achieved.  Increase integral accuracy.
 SCF Done:  E(RwB97X) =  -79.7947475189     A.U. after   12 cycles
            NFock= 12  Conv=0.17D-08     -V/T= 2.0119

 **********************************************************************

            Population analysis using the SCF density.

 **********************************************************************

 Orbital symmetries:
       Occupied  (A) (A) (A) (A) (A) (A) (A) (A) (A)
       Virtual   (A) (A) (A) (A) (A) (A) (A) (A) (A) (A) (A) (A)
                 (A) (A) (A) (A) (A) (A) (A) (A) (A) (A) (A) (A)
                 (A) (A) (A) (A) (A) (A) (A) (A) (A)
 The electronic state is 1-A.
 Alpha  occ. eigenvalues --  -10.26591 -10.25370  -0.87736  -0.72945  -0.54420
 Alpha  occ. eigenvalues --   -0.53659  -0.46502  -0.44348  -0.43169
 Alpha virt. eigenvalues --    0.19302   0.23665   0.24914   0.25393   0.29641
 Alpha virt. eigenvalues --    0.30819   0.33903   0.61742   0.64809   0.65954
 Alpha virt. eigenvalues --    0.74612   0.76554   0.78907   0.96227   0.99446
 Alpha virt. eigenvalues --    1.01103   1.03153   1.04357   1.09166   1.16527
 Alpha virt. eigenvalues --    1.55005   1.61300   1.62245   2.04267   2.09008
 Alpha virt. eigenvalues --    2.11935   2.29779   2.34093   2.44125   2.48570
 Alpha virt. eigenvalues --    2.70123   4.26303   4.49173
          Condensed to atoms (all electrons):
               1          2          3          4          5          6
     1  C    5.063916   0.346415  -0.036499   0.389432   0.389161   0.390033
     2  C    0.346415   5.055986   0.388199  -0.031415  -0.033472  -0.035784
     3  H   -0.036499   0.388199   0.545862  -0.000571  -0.006319   0.004232
     4  H    0.389432  -0.031415  -0.000571   0.539214  -0.027363  -0.028656
     5  H    0.389161  -0.033472  -0.006319  -0.027363   0.550195  -0.031957
     6  H    0.390033  -0.035784   0.004232  -0.028656  -0.031957   0.555750
     7  H   -0.038124   0.380472  -0.028715   0.003771  -0.000416  -0.007583
     8  H   -0.034504   0.387252  -0.027044  -0.004782   0.003778  -0.000865
               7          8
     1  C   -0.038124  -0.034504
     2  C    0.380472   0.387252
     3  H   -0.028715  -0.027044
     4  H    0.003771  -0.004782
     5  H   -0.000416   0.003778
     6  H   -0.007583  -0.000865
     7  H    0.576769  -0.021375
     8  H   -0.021375   0.537703
 Mulliken charges:
               1
     1  C   -0.469831
     2  C   -0.457653
     3  H    0.160855
     4  H    0.160369
     5  H    0.156393
     6  H    0.154829
     7  H    0.135200
     8  H    0.159839
 Sum of Mulliken charges =  -0.00000
 Mulliken charges with hydrogens summed into heavy atoms:
               1
     1  C    0.001759
     2  C   -0.001759
 Electronic spatial extent (au):  <R**2>=            110.1496
 Charge=             -0.0000 electrons
 Dipole moment (field-independent basis, Debye):
    X=              0.0634    Y=              0.0200    Z=              0.0370  Tot=              0.0760
 Quadrupole moment (field-independent basis, Debye-Ang):
   XX=            -15.4513   YY=            -14.5878   ZZ=            -14.8357
   XY=             -0.0747   XZ=             -0.0417   YZ=             -0.0807
 Traceless Quadrupole moment (field-independent basis, Debye-Ang):
   XX=             -0.4930   YY=              0.3704   ZZ=              0.1226
   XY=             -0.0747   XZ=             -0.0417   YZ=             -0.0807
 Octapole moment (field-independent basis, Debye-Ang**2):
  XXX=              0.7696  YYY=              0.4129  ZZZ=              0.5723  XYY=              0.0735
  XXY=              0.2870  XXZ=              0.1685  XZZ=             -0.0038  YZZ=             -0.2813
  YYZ=             -0.4488  XYZ=              0.0996
 Hexadecapole moment (field-independent basis, Debye-Ang**3):
 XXXX=            -93.3701 YYYY=            -29.5640 ZZZZ=            -28.6881 XXXY=             -0.2995
 XXXZ=             -0.1602 YYYX=              0.6580 YYYZ=             -0.1073 ZZZX=             -1.0095
 ZZZY=             -0.1732 XXYY=            -19.0320 XXZZ=            -19.2627 YYZZ=             -9.6837
 XXYZ=             -0.2182 YYXZ=              0.8773 ZZXY=             -0.9250
 N-N= 4.189014391693D+01 E-N=-2.674437245359D+02  KE= 7.885342652463D+01
 1\1\GINC-NODE67\SP\RwB97X\6-31G(d)\C2H6\YANZ\22-Sep-2023\0\\# 6-31g(d)
  wb97x\\tmpdir/M2_conf_1_25.gjf\\0,1\C,0,0.,0.,0.\C,0,1.5268,0.,0.\H,0
 ,1.90826,0.,1.02737\H,0,-0.44507,-0.98154,0.12452\H,0,-0.40104,0.6612,
 0.77553\H,0,-0.37635,0.41717,-0.94674\H,0,1.87381,1.02413,-0.48105\H,0
 ,1.93317,-0.86763,-0.55615\\Version=ES64L-G16RevA.03\State=1-A\HF=-79.
 7947475\RMSD=1.665e-09\Dipole=-0.0249087,-0.0072434,0.0149075\Quadrupo
 le=-0.3660222,0.2805642,0.085458,-0.0574643,0.0329463,0.0501553\PG=C01
  [X(C2H6)]\\@


 THE MORE PROGRESS PHYSICAL SCIENCES MAKE, THE MORE THEY TEND TO ENTER
 THE DOMAIN OF MATHEMATICS, WHICH IS A KIND OF CENTRE TO WHICH THEY ALL
 CONVERGE.  WE MAY EVEN JUDGE THE DEGREE OF PERFECTION TO WHICH A 
 SCIENCE HAS ARRIVED BY THE FACILITY WITH WHICH IT MAY BE SUBMITTED
 TO CALCULATION.

                               -- ADOLPHE QUETELET, 1796-1874
 Job cpu time:       0 days  0 hours  0 minutes 10.9 seconds.
 Elapsed time:       0 days  0 hours  0 minutes  5.4 seconds.
 File lengths (MBytes):  RWF=      6 Int=      0 D2E=      0 Chk=      1 Scr=      1
 Normal termination of Gaussian 16 at Fri Sep 22 16:31:33 2023.
