 Entering Gaussian System, Link 0=g16
 Initial command:
 /share/apps/gaussian/g16/l1.exe "/tmp/55568.mgr/Gau-354982.inp" -scrdir="/tmp/55568.mgr/"
 Entering Link 1 = /share/apps/gaussian/g16/l1.exe PID=    354983.
  
 Copyright (c) 1988,1990,1992,1993,1995,1998,2003,2009,2016,
            Gaussian, Inc.  All Rights Reserved.
  
 This is part of the Gaussian(R) 16 program.  It is based on
 the Gaussian(R) 09 system (copyright 2009, Gaussian, Inc.),
 the Gaussian(R) 03 system (copyright 2003, Gaussian, Inc.),
 the Gaussian(R) 98 system (copyright 1998, Gaussian, Inc.),
 the Gaussian(R) 94 system (copyright 1995, Gaussian, Inc.),
 the Gaussian 92(TM) system (copyright 1992, Gaussian, Inc.),
 the Gaussian 90(TM) system (copyright 1990, Gaussian, Inc.),
 the Gaussian 88(TM) system (copyright 1988, Gaussian, Inc.),
 the Gaussian 86(TM) system (copyright 1986, Carnegie Mellon
 University), and the Gaussian 82(TM) system (copyright 1983,
 Carnegie Mellon University). Gaussian is a federally registered
 trademark of Gaussian, Inc.
  
 This software contains proprietary and confidential information,
 including trade secrets, belonging to Gaussian, Inc.
  
 This software is provided under written license and may be
 used, copied, transmitted, or stored only in accord with that
 written license.
  
 The following legend is applicable only to US Government
 contracts under FAR:
  
                    RESTRICTED RIGHTS LEGEND
  
 Use, reproduction and disclosure by the US Government is
 subject to restrictions as set forth in subparagraphs (a)
 and (c) of the Commercial Computer Software - Restricted
 Rights clause in FAR 52.227-19.
  
 Gaussian, Inc.
 340 Quinnipiac St., Bldg. 40, Wallingford CT 06492
  
  
 ---------------------------------------------------------------
 Warning -- This program may not be used in any manner that
 competes with the business of Gaussian, Inc. or will provide
 assistance to any competitor of Gaussian, Inc.  The licensee
 of this program is prohibited from giving any competitor of
 Gaussian, Inc. access to this program.  By using this program,
 the user acknowledges that Gaussian, Inc. is engaged in the
 business of creating and licensing software in the field of
 computational chemistry and represents and warrants to the
 licensee that it is not a competitor of Gaussian, Inc. and that
 it will not use this program in any manner prohibited above.
 ---------------------------------------------------------------
  

 Cite this work as:
 Gaussian 16, Revision A.03,
 M. J. Frisch, G. W. Trucks, H. B. Schlegel, G. E. Scuseria, 
 M. A. Robb, J. R. Cheeseman, G. Scalmani, V. Barone, 
 G. A. Petersson, H. Nakatsuji, X. Li, M. Caricato, A. V. Marenich, 
 J. Bloino, B. G. Janesko, R. Gomperts, B. Mennucci, H. P. Hratchian, 
 J. V. Ortiz, A. F. Izmaylov, J. L. Sonnenberg, D. Williams-Young, 
 F. Ding, F. Lipparini, F. Egidi, J. Goings, B. Peng, A. Petrone, 
 T. Henderson, D. Ranasinghe, V. G. Zakrzewski, J. Gao, N. Rega, 
 G. Zheng, W. Liang, M. Hada, M. Ehara, K. Toyota, R. Fukuda, 
 J. Hasegawa, M. Ishida, T. Nakajima, Y. Honda, O. Kitao, H. Nakai, 
 T. Vreven, K. Throssell, J. A. Montgomery, Jr., J. E. Peralta, 
 F. Ogliaro, M. J. Bearpark, J. J. Heyd, E. N. Brothers, K. N. Kudin, 
 V. N. Staroverov, T. A. Keith, R. Kobayashi, J. Normand, 
 K. Raghavachari, A. P. Rendell, J. C. Burant, S. S. Iyengar, 
 J. Tomasi, M. Cossi, J. M. Millam, M. Klene, C. Adamo, R. Cammi, 
 J. W. Ochterski, R. L. Martin, K. Morokuma, O. Farkas, 
 J. B. Foresman, and D. J. Fox, Gaussian, Inc., Wallingford CT, 2016.
 
 ******************************************
 Gaussian 16:  ES64L-G16RevA.03 25-Dec-2016
                22-Sep-2023 
 ******************************************
 %nprocshared=2
 Will use up to    2 processors via shared memory.
 %mem=2GB
 ----------------
 # 6-31g(d) wb97x
 ----------------
 1/38=1,172=1/1;
 2/12=2,17=6,18=5,40=1/2;
 3/5=1,6=6,7=1,11=2,25=1,30=1,74=-57/1,2,3;
 4//1;
 5/5=2,38=5/2;
 6/7=2,8=2,9=2,10=2,28=1/1;
 99/5=1,9=1/99;
 -----------------------
 tmpdir/M2_conf_0_40.gjf
 -----------------------
 Symbolic Z-matrix:
 Charge =  0 Multiplicity = 1
 C                     0.        0.        0. 
 H                     1.1205    0.        0. 
 H                    -0.35975   0.       -1.04776 
 H                    -0.37292   0.83869   0.70275 
 H                    -0.32686  -0.95394   0.49152 
 
                          Input orientation:                          
 ---------------------------------------------------------------------
 Center     Atomic      Atomic             Coordinates (Angstroms)
 Number     Number       Type             X           Y           Z
 ---------------------------------------------------------------------
      1          6           0        0.000000    0.000000    0.000000
      2          1           0        1.120500    0.000000    0.000000
      3          1           0       -0.359750    0.000000   -1.047760
      4          1           0       -0.372920    0.838690    0.702750
      5          1           0       -0.326860   -0.953940    0.491520
 ---------------------------------------------------------------------
                    Distance matrix (angstroms):
                    1          2          3          4          5
     1  C    0.000000
     2  H    1.120500   0.000000
     3  H    1.107800   1.813544   0.000000
     4  H    1.155996   1.851368   1.941098   0.000000
     5  H    1.121798   1.801789   1.811206   1.805620   0.000000
 Stoichiometry    CH4
 Framework group  C1[X(CH4)]
 Deg. of freedom     9
 Full point group                 C1      NOp   1
 Largest Abelian subgroup         C1      NOp   1
 Largest concise Abelian subgroup C1      NOp   1
                         Standard orientation:                         
 ---------------------------------------------------------------------
 Center     Atomic      Atomic             Coordinates (Angstroms)
 Number     Number       Type             X           Y           Z
 ---------------------------------------------------------------------
      1          6           0        0.007728   -0.003016   -0.017772
      2          1           0        0.188681    1.066313    0.263850
      3          1           0        0.897587   -0.389771   -0.552368
      4          1           0       -1.018877   -0.081642   -0.543344
      5          1           0       -0.113760   -0.576803    0.938492
 ---------------------------------------------------------------------
 Rotational constants (GHZ):         157.5819538         145.4893162         142.4063350
 Standard basis: 6-31G(d) (6D, 7F)
 There are    23 symmetry adapted cartesian basis functions of A   symmetry.
 There are    23 symmetry adapted basis functions of A   symmetry.
    23 basis functions,    44 primitive gaussians,    23 cartesian basis functions
     5 alpha electrons        5 beta electrons
       nuclear repulsion energy        13.0058235697 Hartrees.
 NAtoms=    5 NActive=    5 NUniq=    5 SFac= 1.00D+00 NAtFMM=   60 NAOKFM=F Big=F
 Integral buffers will be    131072 words long.
 Raffenetti 2 integral format.
 Two-electron integral symmetry is turned on.
 One-electron integrals computed using PRISM.
 NBasis=    23 RedAO= T EigKep=  1.99D-02  NBF=    23
 NBsUse=    23 1.00D-06 EigRej= -1.00D+00 NBFU=    23
 ExpMin= 1.61D-01 ExpMax= 3.05D+03 ExpMxC= 4.57D+02 IAcc=3 IRadAn=         5 AccDes= 0.00D+00
 Harris functional with IExCor= 4538 and IRadAn=       5 diagonalized for initial guess.
 HarFok:  IExCor= 4538 AccDes= 0.00D+00 IRadAn=         5 IDoV= 1 UseB2=F ITyADJ=14
 ICtDFT=  3500011 ScaDFX=  1.000000  1.000000  1.000000  1.000000
 FoFCou: FMM=F IPFlag=           0 FMFlag=      100000 FMFlg1=           0
         NFxFlg=           0 DoJE=T BraDBF=F KetDBF=T FulRan=T
         wScrn=  0.000000 ICntrl=       500 IOpCl=  0 I1Cent=   200000004 NGrid=           0
         NMat0=    1 NMatS0=      1 NMatT0=    0 NMatD0=    1 NMtDS0=    0 NMtDT0=    0
 Petite list used in FoFCou.
 Keep R1 ints in memory in canonical form, NReq=1800744.
 Requested convergence on RMS density matrix=1.00D-08 within 128 cycles.
 Requested convergence on MAX density matrix=1.00D-06.
 Requested convergence on             energy=1.00D-06.
 No special actions if energy rises.
 Integral accuracy reduced to 1.0D-05 until final iterations.
 Initial convergence to 1.0D-05 achieved.  Increase integral accuracy.
 SCF Done:  E(RwB97X) =  -40.4941759913     A.U. after   11 cycles
            NFock= 11  Conv=0.20D-08     -V/T= 2.0151

 **********************************************************************

            Population analysis using the SCF density.

 **********************************************************************

 Orbital symmetries:
       Occupied  (A) (A) (A) (A) (A)
       Virtual   (A) (A) (A) (A) (A) (A) (A) (A) (A) (A) (A) (A)
                 (A) (A) (A) (A) (A) (A)
 The electronic state is 1-A.
 Alpha  occ. eigenvalues --  -10.26338  -0.80855  -0.50276  -0.48691  -0.47684
 Alpha virt. eigenvalues --    0.20612   0.25544   0.26601   0.27250   0.64223
 Alpha virt. eigenvalues --    0.64632   0.66590   0.97167   0.99546   1.00919
 Alpha virt. eigenvalues --    1.03299   1.19840   1.76148   1.77046   2.26598
 Alpha virt. eigenvalues --    2.32775   2.33586   4.28322
          Condensed to atoms (all electrons):
               1          2          3          4          5
     1  C    5.134360   0.380163   0.383557   0.377343   0.378714
     2  H    0.380163   0.530883  -0.025428  -0.023495  -0.025306
     3  H    0.383557  -0.025428   0.510501  -0.015254  -0.025110
     4  H    0.377343  -0.023495  -0.015254   0.531115  -0.027922
     5  H    0.378714  -0.025306  -0.025110  -0.027922   0.538616
 Mulliken charges:
               1
     1  C   -0.654137
     2  H    0.163183
     3  H    0.171735
     4  H    0.158212
     5  H    0.161008
 Sum of Mulliken charges =   0.00000
 Mulliken charges with hydrogens summed into heavy atoms:
               1
     1  C    0.000000
 Electronic spatial extent (au):  <R**2>=             36.7237
 Charge=              0.0000 electrons
 Dipole moment (field-independent basis, Debye):
    X=              0.0140    Y=              0.0060    Z=              0.0730  Tot=              0.0746
 Quadrupole moment (field-independent basis, Debye-Ang):
   XX=             -8.0496   YY=             -8.4269   ZZ=             -8.5483
   XY=             -0.0251   XZ=             -0.0562   YZ=              0.0231
 Traceless Quadrupole moment (field-independent basis, Debye-Ang):
   XX=              0.2920   YY=             -0.0853   ZZ=             -0.2067
   XY=             -0.0251   XZ=             -0.0562   YZ=              0.0231
 Octapole moment (field-independent basis, Debye-Ang**2):
  XXX=             -0.1197  YYY=              0.7046  ZZZ=              0.5051  XYY=              0.2743
  XXY=             -0.3082  XXZ=             -0.7283  XZZ=             -0.0225  YZZ=             -0.3839
  YYZ=              0.4172  XYZ=              0.2079
 Hexadecapole moment (field-independent basis, Debye-Ang**3):
 XXXX=            -15.9625 YYYY=            -15.5218 ZZZZ=            -15.8888 XXXY=             -0.2703
 XXXZ=              0.0728 YYYX=              0.1716 YYYZ=              0.2402 ZZZX=             -0.2147
 ZZZY=             -0.3863 XXYY=             -5.6548 XXZZ=             -5.1994 YYZZ=             -5.2086
 XXYZ=              0.2627 YYXZ=             -0.0966 ZZXY=             -0.0248
 N-N= 1.300582356967D+01 E-N=-1.188946960716D+02  KE= 3.989281634464D+01
 1\1\GINC-NODE67\SP\RwB97X\6-31G(d)\C1H4\YANZ\22-Sep-2023\0\\# 6-31g(d)
  wb97x\\tmpdir/M2_conf_0_40.gjf\\0,1\C,0,0.,0.,0.\H,0,1.1205,0.,0.\H,0
 ,-0.35975,0.,-1.04776\H,0,-0.37292,0.83869,0.70275\H,0,-0.32686,-0.953
 94,0.49152\\Version=ES64L-G16RevA.03\State=1-A\HF=-40.494176\RMSD=2.03
 2e-09\Dipole=0.0103503,-0.0264622,0.0072984\Quadrupole=-0.0627147,-0.1
 213373,0.184052,0.005004,-0.0208411,0.1142306\PG=C01 [X(C1H4)]\\@


 YOU WILL NEVER "FIND" TIME FOR ANYTHING.
 IF YOU WANT TIME, YOU MUST MAKE IT.

                        -- CHARLES BIXTON
 Job cpu time:       0 days  0 hours  0 minutes  5.1 seconds.
 Elapsed time:       0 days  0 hours  0 minutes  2.6 seconds.
 File lengths (MBytes):  RWF=      6 Int=      0 D2E=      0 Chk=      1 Scr=      1
 Normal termination of Gaussian 16 at Fri Sep 22 16:30:31 2023.
