 Entering Gaussian System, Link 0=g16
 Initial command:
 /share/apps/gaussian/g16/l1.exe "/tmp/55568.mgr/Gau-356887.inp" -scrdir="/tmp/55568.mgr/"
 Entering Link 1 = /share/apps/gaussian/g16/l1.exe PID=    356888.
  
 Copyright (c) 1988,1990,1992,1993,1995,1998,2003,2009,2016,
            Gaussian, Inc.  All Rights Reserved.
  
 This is part of the Gaussian(R) 16 program.  It is based on
 the Gaussian(R) 09 system (copyright 2009, Gaussian, Inc.),
 the Gaussian(R) 03 system (copyright 2003, Gaussian, Inc.),
 the Gaussian(R) 98 system (copyright 1998, Gaussian, Inc.),
 the Gaussian(R) 94 system (copyright 1995, Gaussian, Inc.),
 the Gaussian 92(TM) system (copyright 1992, Gaussian, Inc.),
 the Gaussian 90(TM) system (copyright 1990, Gaussian, Inc.),
 the Gaussian 88(TM) system (copyright 1988, Gaussian, Inc.),
 the Gaussian 86(TM) system (copyright 1986, Carnegie Mellon
 University), and the Gaussian 82(TM) system (copyright 1983,
 Carnegie Mellon University). Gaussian is a federally registered
 trademark of Gaussian, Inc.
  
 This software contains proprietary and confidential information,
 including trade secrets, belonging to Gaussian, Inc.
  
 This software is provided under written license and may be
 used, copied, transmitted, or stored only in accord with that
 written license.
  
 The following legend is applicable only to US Government
 contracts under FAR:
  
                    RESTRICTED RIGHTS LEGEND
  
 Use, reproduction and disclosure by the US Government is
 subject to restrictions as set forth in subparagraphs (a)
 and (c) of the Commercial Computer Software - Restricted
 Rights clause in FAR 52.227-19.
  
 Gaussian, Inc.
 340 Quinnipiac St., Bldg. 40, Wallingford CT 06492
  
  
 ---------------------------------------------------------------
 Warning -- This program may not be used in any manner that
 competes with the business of Gaussian, Inc. or will provide
 assistance to any competitor of Gaussian, Inc.  The licensee
 of this program is prohibited from giving any competitor of
 Gaussian, Inc. access to this program.  By using this program,
 the user acknowledges that Gaussian, Inc. is engaged in the
 business of creating and licensing software in the field of
 computational chemistry and represents and warrants to the
 licensee that it is not a competitor of Gaussian, Inc. and that
 it will not use this program in any manner prohibited above.
 ---------------------------------------------------------------
  

 Cite this work as:
 Gaussian 16, Revision A.03,
 M. J. Frisch, G. W. Trucks, H. B. Schlegel, G. E. Scuseria, 
 M. A. Robb, J. R. Cheeseman, G. Scalmani, V. Barone, 
 G. A. Petersson, H. Nakatsuji, X. Li, M. Caricato, A. V. Marenich, 
 J. Bloino, B. G. Janesko, R. Gomperts, B. Mennucci, H. P. Hratchian, 
 J. V. Ortiz, A. F. Izmaylov, J. L. Sonnenberg, D. Williams-Young, 
 F. Ding, F. Lipparini, F. Egidi, J. Goings, B. Peng, A. Petrone, 
 T. Henderson, D. Ranasinghe, V. G. Zakrzewski, J. Gao, N. Rega, 
 G. Zheng, W. Liang, M. Hada, M. Ehara, K. Toyota, R. Fukuda, 
 J. Hasegawa, M. Ishida, T. Nakajima, Y. Honda, O. Kitao, H. Nakai, 
 T. Vreven, K. Throssell, J. A. Montgomery, Jr., J. E. Peralta, 
 F. Ogliaro, M. J. Bearpark, J. J. Heyd, E. N. Brothers, K. N. Kudin, 
 V. N. Staroverov, T. A. Keith, R. Kobayashi, J. Normand, 
 K. Raghavachari, A. P. Rendell, J. C. Burant, S. S. Iyengar, 
 J. Tomasi, M. Cossi, J. M. Millam, M. Klene, C. Adamo, R. Cammi, 
 J. W. Ochterski, R. L. Martin, K. Morokuma, O. Farkas, 
 J. B. Foresman, and D. J. Fox, Gaussian, Inc., Wallingford CT, 2016.
 
 ******************************************
 Gaussian 16:  ES64L-G16RevA.03 25-Dec-2016
                22-Sep-2023 
 ******************************************
 %nprocshared=2
 Will use up to    2 processors via shared memory.
 %mem=2GB
 ----------------
 # 6-31g(d) wb97x
 ----------------
 1/38=1,172=1/1;
 2/12=2,17=6,18=5,40=1/2;
 3/5=1,6=6,7=1,11=2,25=1,30=1,74=-57/1,2,3;
 4//1;
 5/5=2,38=5/2;
 6/7=2,8=2,9=2,10=2,28=1/1;
 99/5=1,9=1/99;
 -----------------------
 tmpdir/M2_conf_1_44.gjf
 -----------------------
 Symbolic Z-matrix:
 Charge =  0 Multiplicity = 1
 N                     0.        0.        0. 
 C                     1.4707    0.        0. 
 C                     1.97827   0.        1.46412 
 H                    -0.64579  -0.24216  -0.6375 
 H                    -0.33223   0.52434   0.80281 
 H                     1.99163  -0.83733  -0.50471 
 H                     1.82556   0.95014  -0.42581 
 H                     3.06264  -0.03704   1.5083 
 H                     1.50208   0.95156   1.94699 
 H                     1.53628  -0.88551   1.95828 
 
                          Input orientation:                          
 ---------------------------------------------------------------------
 Center     Atomic      Atomic             Coordinates (Angstroms)
 Number     Number       Type             X           Y           Z
 ---------------------------------------------------------------------
      1          7           0        0.000000    0.000000    0.000000
      2          6           0        1.470700    0.000000    0.000000
      3          6           0        1.978270    0.000000    1.464120
      4          1           0       -0.645790   -0.242160   -0.637500
      5          1           0       -0.332230    0.524340    0.802810
      6          1           0        1.991630   -0.837330   -0.504710
      7          1           0        1.825560    0.950140   -0.425810
      8          1           0        3.062640   -0.037040    1.508300
      9          1           0        1.502080    0.951560    1.946990
     10          1           0        1.536280   -0.885510    1.958280
 ---------------------------------------------------------------------
                    Distance matrix (angstroms):
                    1          2          3          4          5
     1  N    0.000000
     2  C    1.470700   0.000000
     3  C    2.461138   1.549605   0.000000
     4  H    0.939198   2.223641   3.370629   0.000000
     5  H    1.014797   2.042056   2.459812   1.661426   0.000000
     6  H    2.218658   1.107800   2.139531   2.706999   2.994007
     7  H    2.101606   1.100003   2.120830   2.752083   2.519300
     8  H    3.414104   2.193311   1.085902   4.289404   3.512550
     9  H    2.636756   2.167307   1.168498   3.566217   2.203715
    10  H    2.641807   2.150184   1.106199   3.451580   2.610386
                    6          7          8          9         10
     6  H    0.000000
     7  H    1.796901   0.000000
     8  H    2.416555   2.499134   0.000000
     9  H    3.074186   2.394749   1.898717   0.000000
    10  H    2.505192   3.022777   1.803374   1.837423   0.000000
 Stoichiometry    C2H7N
 Framework group  C1[X(C2H7N)]
 Deg. of freedom    24
 Full point group                 C1      NOp   1
 Largest Abelian subgroup         C1      NOp   1
 Largest concise Abelian subgroup C1      NOp   1
                         Standard orientation:                         
 ---------------------------------------------------------------------
 Center     Atomic      Atomic             Coordinates (Angstroms)
 Number     Number       Type             X           Y           Z
 ---------------------------------------------------------------------
      1          7           0       -1.226029   -0.246425   -0.048992
      2          6           0       -0.035049    0.610704    0.050284
      3          6           0        1.234956   -0.272532   -0.040584
      4          1           0       -2.121901   -0.083068   -0.278821
      5          1           0       -1.026463   -1.143603    0.381191
      6          1           0        0.094509    1.411855   -0.703767
      7          1           0       -0.001821    1.057034    1.055117
      8          1           0        2.139172    0.327895   -0.007981
      9          1           0        1.128295   -1.042451    0.831904
     10          1           0        1.170975   -0.831716   -0.992895
 ---------------------------------------------------------------------
 Rotational constants (GHZ):          31.2065831           9.0545865           7.7994544
 Standard basis: 6-31G(d) (6D, 7F)
 There are    59 symmetry adapted cartesian basis functions of A   symmetry.
 There are    59 symmetry adapted basis functions of A   symmetry.
    59 basis functions,   112 primitive gaussians,    59 cartesian basis functions
    13 alpha electrons       13 beta electrons
       nuclear repulsion energy        82.6808977840 Hartrees.
 NAtoms=   10 NActive=   10 NUniq=   10 SFac= 1.00D+00 NAtFMM=   60 NAOKFM=F Big=F
 Integral buffers will be    131072 words long.
 Raffenetti 2 integral format.
 Two-electron integral symmetry is turned on.
 One-electron integrals computed using PRISM.
 NBasis=    59 RedAO= T EigKep=  6.14D-03  NBF=    59
 NBsUse=    59 1.00D-06 EigRej= -1.00D+00 NBFU=    59
 ExpMin= 1.61D-01 ExpMax= 4.17D+03 ExpMxC= 6.27D+02 IAcc=3 IRadAn=         5 AccDes= 0.00D+00
 Harris functional with IExCor= 4538 and IRadAn=       5 diagonalized for initial guess.
 HarFok:  IExCor= 4538 AccDes= 0.00D+00 IRadAn=         5 IDoV= 1 UseB2=F ITyADJ=14
 ICtDFT=  3500011 ScaDFX=  1.000000  1.000000  1.000000  1.000000
 FoFCou: FMM=F IPFlag=           0 FMFlag=      100000 FMFlg1=           0
         NFxFlg=           0 DoJE=T BraDBF=F KetDBF=T FulRan=T
         wScrn=  0.000000 ICntrl=       500 IOpCl=  0 I1Cent=   200000004 NGrid=           0
         NMat0=    1 NMatS0=      1 NMatT0=    0 NMatD0=    1 NMtDS0=    0 NMtDT0=    0
 Petite list used in FoFCou.
 Keep R1 ints in memory in canonical form, NReq=4895189.
 Requested convergence on RMS density matrix=1.00D-08 within 128 cycles.
 Requested convergence on MAX density matrix=1.00D-06.
 Requested convergence on             energy=1.00D-06.
 No special actions if energy rises.
 Integral accuracy reduced to 1.0D-05 until final iterations.
 Initial convergence to 1.0D-05 achieved.  Increase integral accuracy.
 SCF Done:  E(RwB97X) =  -135.103192047     A.U. after   13 cycles
            NFock= 13  Conv=0.35D-08     -V/T= 2.0105

 **********************************************************************

            Population analysis using the SCF density.

 **********************************************************************

 Orbital symmetries:
       Occupied  (A) (A) (A) (A) (A) (A) (A) (A) (A) (A) (A) (A)
                 (A)
       Virtual   (A) (A) (A) (A) (A) (A) (A) (A) (A) (A) (A) (A)
                 (A) (A) (A) (A) (A) (A) (A) (A) (A) (A) (A) (A)
                 (A) (A) (A) (A) (A) (A) (A) (A) (A) (A) (A) (A)
                 (A) (A) (A) (A) (A) (A) (A) (A) (A) (A)
 The electronic state is 1-A.
 Alpha  occ. eigenvalues --  -14.36542 -10.29081 -10.26294  -0.98961  -0.85022
 Alpha  occ. eigenvalues --   -0.71798  -0.61740  -0.55450  -0.52631  -0.48692
 Alpha  occ. eigenvalues --   -0.45010  -0.43566  -0.30296
 Alpha virt. eigenvalues --    0.18609   0.22494   0.23783   0.26392   0.27530
 Alpha virt. eigenvalues --    0.28677   0.29011   0.34493   0.35626   0.62885
 Alpha virt. eigenvalues --    0.67083   0.68203   0.70032   0.76501   0.78844
 Alpha virt. eigenvalues --    0.86034   0.91903   0.96087   0.98985   1.01134
 Alpha virt. eigenvalues --    1.02610   1.07259   1.07712   1.08964   1.14028
 Alpha virt. eigenvalues --    1.20088   1.43676   1.52031   1.58831   1.74541
 Alpha virt. eigenvalues --    1.83612   2.00507   2.05093   2.11726   2.14685
 Alpha virt. eigenvalues --    2.22315   2.29260   2.37760   2.43958   2.47149
 Alpha virt. eigenvalues --    2.64126   2.73783   2.88506   3.91939   4.30104
 Alpha virt. eigenvalues --    4.53872
          Condensed to atoms (all electrons):
               1          2          3          4          5          6
     1  N    6.948568   0.305871  -0.060346   0.353300   0.338839  -0.030910
     2  C    0.305871   4.815203   0.371092  -0.019446  -0.040701   0.383721
     3  C   -0.060346   0.371092   5.129796   0.003096  -0.005525  -0.032354
     4  H    0.353300  -0.019446   0.003096   0.361105  -0.028166  -0.001564
     5  H    0.338839  -0.040701  -0.005525  -0.028166   0.416510   0.003910
     6  H   -0.030910   0.383721  -0.032354  -0.001564   0.003910   0.576565
     7  H   -0.062671   0.398286  -0.055436   0.000740   0.000433  -0.044080
     8  H    0.003740  -0.028703   0.375471  -0.000098   0.000053  -0.003061
     9  H   -0.004477  -0.040192   0.375949  -0.000029   0.007524   0.005081
    10  H    0.005541  -0.038535   0.371617   0.000024   0.000323  -0.005475
               7          8          9         10
     1  N   -0.062671   0.003740  -0.004477   0.005541
     2  C    0.398286  -0.028703  -0.040192  -0.038535
     3  C   -0.055436   0.375471   0.375949   0.371617
     4  H    0.000740  -0.000098  -0.000029   0.000024
     5  H    0.000433   0.000053   0.007524   0.000323
     6  H   -0.044080  -0.003061   0.005081  -0.005475
     7  H    0.629057   0.001500  -0.008324   0.006308
     8  H    0.001500   0.528096  -0.019172  -0.021938
     9  H   -0.008324  -0.019172   0.585357  -0.029840
    10  H    0.006308  -0.021938  -0.029840   0.546995
 Mulliken charges:
               1
     1  N   -0.797454
     2  C   -0.106595
     3  C   -0.473359
     4  H    0.331038
     5  H    0.306800
     6  H    0.148167
     7  H    0.134187
     8  H    0.164114
     9  H    0.128122
    10  H    0.164980
 Sum of Mulliken charges =  -0.00000
 Mulliken charges with hydrogens summed into heavy atoms:
               1
     1  N   -0.159617
     2  C    0.175760
     3  C   -0.016143
 Electronic spatial extent (au):  <R**2>=            206.8712
 Charge=              0.0000 electrons
 Dipole moment (field-independent basis, Debye):
    X=             -0.1484    Y=             -0.0780    Z=              0.1776  Tot=              0.2443
 Quadrupole moment (field-independent basis, Debye-Ang):
   XX=            -18.7721   YY=            -19.7579   ZZ=            -21.4771
   XY=              0.9101   XZ=              0.0738   YZ=             -1.2454
 Traceless Quadrupole moment (field-independent basis, Debye-Ang):
   XX=              1.2302   YY=              0.2445   ZZ=             -1.4747
   XY=              0.9101   XZ=              0.0738   YZ=             -1.2454
 Octapole moment (field-independent basis, Debye-Ang**2):
  XXX=            -11.3709  YYY=             -2.0284  ZZZ=              0.0428  XYY=             -2.1482
  XXY=              0.6970  XXZ=             -2.0362  XZZ=             -0.1367  YZZ=             -0.2037
  YYZ=              0.4760  XYZ=              0.9756
 Hexadecapole moment (field-independent basis, Debye-Ang**3):
 XXXX=           -146.2701 YYYY=            -63.0277 ZZZZ=            -37.0078 XXXY=              6.2174
 XXXZ=              4.4020 YYYX=              4.0266 YYYZ=             -2.8689 ZZZX=             -0.4614
 ZZZY=             -0.5986 XXYY=            -38.4289 XXZZ=            -36.6005 YYZZ=            -15.7534
 XXYZ=             -1.0843 YYXZ=             -1.0090 ZZXY=             -0.2283
 N-N= 8.268089778399D+01 E-N=-4.784594794638D+02  KE= 1.336968253153D+02
 1\1\GINC-NODE67\SP\RwB97X\6-31G(d)\C2H7N1\YANZ\22-Sep-2023\0\\# 6-31g(
 d) wb97x\\tmpdir/M2_conf_1_44.gjf\\0,1\N,0,0.,0.,0.\C,0,1.4707,0.,0.\C
 ,0,1.97827,0.,1.46412\H,0,-0.64579,-0.24216,-0.6375\H,0,-0.33223,0.524
 34,0.80281\H,0,1.99163,-0.83733,-0.50471\H,0,1.82556,0.95014,-0.42581\
 H,0,3.06264,-0.03704,1.5083\H,0,1.50208,0.95156,1.94699\H,0,1.53628,-0
 .88551,1.95828\\Version=ES64L-G16RevA.03\State=1-A\HF=-135.103192\RMSD
 =3.483e-09\Dipole=-0.0604713,0.0730684,-0.0155091\Quadrupole=1.2283614
 ,-0.8807489,-0.3476125,-0.6353785,0.2405157,0.8305519\PG=C01 [X(C2H7N1
 )]\\@


 A MAN THINKING OR WORKING IS ALWAYS ALONE, 
 LET HIM BE WHERE HE WILL.

                                    -- THOREAU
 Job cpu time:       0 days  0 hours  0 minutes 18.1 seconds.
 Elapsed time:       0 days  0 hours  0 minutes  9.2 seconds.
 File lengths (MBytes):  RWF=      6 Int=      0 D2E=      0 Chk=      1 Scr=      1
 Normal termination of Gaussian 16 at Fri Sep 22 16:31:56 2023.
