 Entering Gaussian System, Link 0=g16
 Initial command:
 /share/apps/gaussian/g16/l1.exe "/tmp/55568.mgr/Gau-357589.inp" -scrdir="/tmp/55568.mgr/"
 Entering Link 1 = /share/apps/gaussian/g16/l1.exe PID=    357590.
  
 Copyright (c) 1988,1990,1992,1993,1995,1998,2003,2009,2016,
            Gaussian, Inc.  All Rights Reserved.
  
 This is part of the Gaussian(R) 16 program.  It is based on
 the Gaussian(R) 09 system (copyright 2009, Gaussian, Inc.),
 the Gaussian(R) 03 system (copyright 2003, Gaussian, Inc.),
 the Gaussian(R) 98 system (copyright 1998, Gaussian, Inc.),
 the Gaussian(R) 94 system (copyright 1995, Gaussian, Inc.),
 the Gaussian 92(TM) system (copyright 1992, Gaussian, Inc.),
 the Gaussian 90(TM) system (copyright 1990, Gaussian, Inc.),
 the Gaussian 88(TM) system (copyright 1988, Gaussian, Inc.),
 the Gaussian 86(TM) system (copyright 1986, Carnegie Mellon
 University), and the Gaussian 82(TM) system (copyright 1983,
 Carnegie Mellon University). Gaussian is a federally registered
 trademark of Gaussian, Inc.
  
 This software contains proprietary and confidential information,
 including trade secrets, belonging to Gaussian, Inc.
  
 This software is provided under written license and may be
 used, copied, transmitted, or stored only in accord with that
 written license.
  
 The following legend is applicable only to US Government
 contracts under FAR:
  
                    RESTRICTED RIGHTS LEGEND
  
 Use, reproduction and disclosure by the US Government is
 subject to restrictions as set forth in subparagraphs (a)
 and (c) of the Commercial Computer Software - Restricted
 Rights clause in FAR 52.227-19.
  
 Gaussian, Inc.
 340 Quinnipiac St., Bldg. 40, Wallingford CT 06492
  
  
 ---------------------------------------------------------------
 Warning -- This program may not be used in any manner that
 competes with the business of Gaussian, Inc. or will provide
 assistance to any competitor of Gaussian, Inc.  The licensee
 of this program is prohibited from giving any competitor of
 Gaussian, Inc. access to this program.  By using this program,
 the user acknowledges that Gaussian, Inc. is engaged in the
 business of creating and licensing software in the field of
 computational chemistry and represents and warrants to the
 licensee that it is not a competitor of Gaussian, Inc. and that
 it will not use this program in any manner prohibited above.
 ---------------------------------------------------------------
  

 Cite this work as:
 Gaussian 16, Revision A.03,
 M. J. Frisch, G. W. Trucks, H. B. Schlegel, G. E. Scuseria, 
 M. A. Robb, J. R. Cheeseman, G. Scalmani, V. Barone, 
 G. A. Petersson, H. Nakatsuji, X. Li, M. Caricato, A. V. Marenich, 
 J. Bloino, B. G. Janesko, R. Gomperts, B. Mennucci, H. P. Hratchian, 
 J. V. Ortiz, A. F. Izmaylov, J. L. Sonnenberg, D. Williams-Young, 
 F. Ding, F. Lipparini, F. Egidi, J. Goings, B. Peng, A. Petrone, 
 T. Henderson, D. Ranasinghe, V. G. Zakrzewski, J. Gao, N. Rega, 
 G. Zheng, W. Liang, M. Hada, M. Ehara, K. Toyota, R. Fukuda, 
 J. Hasegawa, M. Ishida, T. Nakajima, Y. Honda, O. Kitao, H. Nakai, 
 T. Vreven, K. Throssell, J. A. Montgomery, Jr., J. E. Peralta, 
 F. Ogliaro, M. J. Bearpark, J. J. Heyd, E. N. Brothers, K. N. Kudin, 
 V. N. Staroverov, T. A. Keith, R. Kobayashi, J. Normand, 
 K. Raghavachari, A. P. Rendell, J. C. Burant, S. S. Iyengar, 
 J. Tomasi, M. Cossi, J. M. Millam, M. Klene, C. Adamo, R. Cammi, 
 J. W. Ochterski, R. L. Martin, K. Morokuma, O. Farkas, 
 J. B. Foresman, and D. J. Fox, Gaussian, Inc., Wallingford CT, 2016.
 
 ******************************************
 Gaussian 16:  ES64L-G16RevA.03 25-Dec-2016
                22-Sep-2023 
 ******************************************
 %nprocshared=2
 Will use up to    2 processors via shared memory.
 %mem=2GB
 ----------------
 # 6-31g(d) wb97x
 ----------------
 1/38=1,172=1/1;
 2/12=2,17=6,18=5,40=1/2;
 3/5=1,6=6,7=1,11=2,25=1,30=1,74=-57/1,2,3;
 4//1;
 5/5=2,38=5/2;
 6/7=2,8=2,9=2,10=2,28=1/1;
 99/5=1,9=1/99;
 -----------------------
 tmpdir/M2_conf_1_89.gjf
 -----------------------
 Symbolic Z-matrix:
 Charge =  0 Multiplicity = 1
 O                     0.        0.        0. 
 C                     1.2444    0.        0. 
 C                     2.05597   0.        1.27194 
 H                     1.85258  -0.01774  -0.86101 
 H                     1.80579  -0.89779   1.84351 
 H                     1.75641   0.86367   1.87129 
 H                     3.13465   0.03285   1.10189 
 
                          Input orientation:                          
 ---------------------------------------------------------------------
 Center     Atomic      Atomic             Coordinates (Angstroms)
 Number     Number       Type             X           Y           Z
 ---------------------------------------------------------------------
      1          8           0        0.000000    0.000000    0.000000
      2          6           0        1.244400    0.000000    0.000000
      3          6           0        2.055970    0.000000    1.271940
      4          1           0        1.852580   -0.017740   -0.861010
      5          1           0        1.805790   -0.897790    1.843510
      6          1           0        1.756410    0.863670    1.871290
      7          1           0        3.134650    0.032850    1.101890
 ---------------------------------------------------------------------
                    Distance matrix (angstroms):
                    1          2          3          4          5
     1  O    0.000000
     2  C    1.244400   0.000000
     3  C    2.417611   1.508800   0.000000
     4  H    2.042965   1.054294   2.142699   0.000000
     5  H    2.732295   2.125962   1.093302   2.844487   0.000000
     6  H    2.707883   2.123630   1.093107   2.872559   1.762371
     7  H    3.322841   2.188215   1.092496   2.345046   1.783805
                    6          7
     6  H    0.000000
     7  H    1.783756   0.000000
 Stoichiometry    C2H4O
 Framework group  C1[X(C2H4O)]
 Deg. of freedom    15
 Full point group                 C1      NOp   1
 Largest Abelian subgroup         C1      NOp   1
 Largest concise Abelian subgroup C1      NOp   1
                         Standard orientation:                         
 ---------------------------------------------------------------------
 Center     Atomic      Atomic             Coordinates (Angstroms)
 Number     Number       Type             X           Y           Z
 ---------------------------------------------------------------------
      1          8           0        1.245605   -0.277637    0.000723
      2          6           0        0.223708    0.432462   -0.003381
      3          6           0       -1.168577   -0.148921    0.000215
      4          1           0        0.215606    1.486663    0.008106
      5          1           0       -1.289199   -0.755719    0.901633
      6          1           0       -1.264687   -0.817159   -0.859496
      7          1           0       -1.957350    0.606060   -0.037031
 ---------------------------------------------------------------------
 Rotational constants (GHZ):          55.4117859          10.0710000           8.9971105
 Standard basis: 6-31G(d) (6D, 7F)
 There are    53 symmetry adapted cartesian basis functions of A   symmetry.
 There are    53 symmetry adapted basis functions of A   symmetry.
    53 basis functions,   100 primitive gaussians,    53 cartesian basis functions
    12 alpha electrons       12 beta electrons
       nuclear repulsion energy        69.1408729298 Hartrees.
 NAtoms=    7 NActive=    7 NUniq=    7 SFac= 1.00D+00 NAtFMM=   60 NAOKFM=F Big=F
 Integral buffers will be    131072 words long.
 Raffenetti 2 integral format.
 Two-electron integral symmetry is turned on.
 One-electron integrals computed using PRISM.
 NBasis=    53 RedAO= T EigKep=  6.42D-03  NBF=    53
 NBsUse=    53 1.00D-06 EigRej= -1.00D+00 NBFU=    53
 ExpMin= 1.61D-01 ExpMax= 5.48D+03 ExpMxC= 8.25D+02 IAcc=3 IRadAn=         5 AccDes= 0.00D+00
 Harris functional with IExCor= 4538 and IRadAn=       5 diagonalized for initial guess.
 HarFok:  IExCor= 4538 AccDes= 0.00D+00 IRadAn=         5 IDoV= 1 UseB2=F ITyADJ=14
 ICtDFT=  3500011 ScaDFX=  1.000000  1.000000  1.000000  1.000000
 FoFCou: FMM=F IPFlag=           0 FMFlag=      100000 FMFlg1=           0
         NFxFlg=           0 DoJE=T BraDBF=F KetDBF=T FulRan=T
         wScrn=  0.000000 ICntrl=       500 IOpCl=  0 I1Cent=   200000004 NGrid=           0
         NMat0=    1 NMatS0=      1 NMatT0=    0 NMatD0=    1 NMtDS0=    0 NMtDT0=    0
 Petite list used in FoFCou.
 Keep R1 ints in memory in canonical form, NReq=3800804.
 Requested convergence on RMS density matrix=1.00D-08 within 128 cycles.
 Requested convergence on MAX density matrix=1.00D-06.
 Requested convergence on             energy=1.00D-06.
 No special actions if energy rises.
 Integral accuracy reduced to 1.0D-05 until final iterations.
 Initial convergence to 1.0D-05 achieved.  Increase integral accuracy.
 SCF Done:  E(RwB97X) =  -153.779015959     A.U. after   14 cycles
            NFock= 14  Conv=0.64D-08     -V/T= 2.0094

 **********************************************************************

            Population analysis using the SCF density.

 **********************************************************************

 Orbital symmetries:
       Occupied  (A) (A) (A) (A) (A) (A) (A) (A) (A) (A) (A) (A)
       Virtual   (A) (A) (A) (A) (A) (A) (A) (A) (A) (A) (A) (A)
                 (A) (A) (A) (A) (A) (A) (A) (A) (A) (A) (A) (A)
                 (A) (A) (A) (A) (A) (A) (A) (A) (A) (A) (A) (A)
                 (A) (A) (A) (A) (A)
 The electronic state is 1-A.
 Alpha  occ. eigenvalues --  -19.21823 -10.36597 -10.27768  -1.15340  -0.88353
 Alpha  occ. eigenvalues --   -0.71551  -0.58795  -0.55259  -0.53679  -0.50256
 Alpha  occ. eigenvalues --   -0.45570  -0.35842
 Alpha virt. eigenvalues --    0.06201   0.20669   0.22544   0.26986   0.27239
 Alpha virt. eigenvalues --    0.34317   0.36991   0.63135   0.64444   0.67539
 Alpha virt. eigenvalues --    0.70824   0.75779   0.82036   0.89335   0.96215
 Alpha virt. eigenvalues --    0.97298   0.99516   1.05551   1.05747   1.10650
 Alpha virt. eigenvalues --    1.19312   1.32005   1.49290   1.55264   1.60681
 Alpha virt. eigenvalues --    1.82130   1.91644   1.92823   1.96205   2.14890
 Alpha virt. eigenvalues --    2.24666   2.30314   2.33578   2.39694   2.62632
 Alpha virt. eigenvalues --    2.67341   2.96024   3.02884   3.87217   4.20554
 Alpha virt. eigenvalues --    4.46457
          Condensed to atoms (all electrons):
               1          2          3          4          5          6
     1  O    7.972576   0.539300  -0.073549  -0.043972  -0.000750  -0.000226
     2  C    0.539300   4.608800   0.315847   0.367847  -0.021979  -0.022383
     3  C   -0.073549   0.315847   5.344120  -0.114193   0.369113   0.368408
     4  H   -0.043972   0.367847  -0.114193   0.629646   0.004070   0.004306
     5  H   -0.000750  -0.021979   0.369113   0.004070   0.481274  -0.014611
     6  H   -0.000226  -0.022383   0.368408   0.004306  -0.014611   0.481986
     7  H    0.003007  -0.017312   0.350024   0.005026  -0.022294  -0.022072
               7
     1  O    0.003007
     2  C   -0.017312
     3  C    0.350024
     4  H    0.005026
     5  H   -0.022294
     6  H   -0.022072
     7  H    0.534383
 Mulliken charges:
               1
     1  O   -0.396387
     2  C    0.229879
     3  C   -0.559770
     4  H    0.147270
     5  H    0.205177
     6  H    0.204593
     7  H    0.169239
 Sum of Mulliken charges =  -0.00000
 Mulliken charges with hydrogens summed into heavy atoms:
               1
     1  O   -0.396387
     2  C    0.377149
     3  C    0.019238
 Electronic spatial extent (au):  <R**2>=            167.5142
 Charge=              0.0000 electrons
 Dipole moment (field-independent basis, Debye):
    X=             -2.5254    Y=              1.1403    Z=              0.0084  Tot=              2.7709
 Quadrupole moment (field-independent basis, Debye-Ang):
   XX=            -20.8996   YY=            -17.4015   ZZ=            -17.5229
   XY=              0.9775   XZ=             -0.0188   YZ=             -0.0040
 Traceless Quadrupole moment (field-independent basis, Debye-Ang):
   XX=             -2.2916   YY=              1.2065   ZZ=              1.0851
   XY=              0.9775   XZ=             -0.0188   YZ=             -0.0040
 Octapole moment (field-independent basis, Debye-Ang**2):
  XXX=             -0.7980  YYY=              0.5604  ZZZ=              0.1010  XYY=              0.5853
  XXY=              0.6625  XXZ=              0.0101  XZZ=              1.1162  YZZ=             -1.1674
  YYZ=             -0.0424  XYZ=              0.0308
 Hexadecapole moment (field-independent basis, Debye-Ang**3):
 XXXX=           -148.0096 YYYY=            -40.3277 ZZZZ=            -21.6738 XXXY=             -2.5211
 XXXZ=              0.0195 YYYX=             -0.5304 YYYZ=              0.0952 ZZZX=             -0.1466
 ZZZY=             -0.0486 XXYY=            -29.9625 XXZZ=            -26.9413 YYZZ=             -9.9525
 XXYZ=             -0.0979 YYXZ=              0.0754 ZZXY=              0.7743
 N-N= 6.914087292976D+01 E-N=-4.973478480241D+02  KE= 1.523534328883D+02
 1\1\GINC-NODE67\SP\RwB97X\6-31G(d)\C2H4O1\YANZ\22-Sep-2023\0\\# 6-31g(
 d) wb97x\\tmpdir/M2_conf_1_89.gjf\\0,1\O,0,0.,0.,0.\C,0,1.2444,0.,0.\C
 ,0,2.05597,0.,1.27194\H,0,1.85258,-0.01774,-0.86101\H,0,1.80579,-0.897
 79,1.84351\H,0,1.75641,0.86367,1.87129\H,0,3.13465,0.03285,1.10189\\Ve
 rsion=ES64L-G16RevA.03\State=1-A\HF=-153.779016\RMSD=6.429e-09\Dipole=
 1.0719057,-0.0058458,0.1985639\Quadrupole=-1.5380338,0.8066947,0.73133
 91,-0.006802,-0.9653051,-0.0075601\PG=C01 [X(C2H4O1)]\\@


 MOST BUREAUCRACIES FUNCTION LIKE A SEPTIC TANK.
 THE LARGE CHUNKS RISE TO THE TOP.
 Job cpu time:       0 days  0 hours  0 minutes 11.6 seconds.
 Elapsed time:       0 days  0 hours  0 minutes  5.9 seconds.
 File lengths (MBytes):  RWF=      6 Int=      0 D2E=      0 Chk=      1 Scr=      1
 Normal termination of Gaussian 16 at Fri Sep 22 16:32:16 2023.
