 Entering Gaussian System, Link 0=g16
 Initial command:
 /share/apps/gaussian/g16/l1.exe "/tmp/55568.mgr/Gau-358317.inp" -scrdir="/tmp/55568.mgr/"
 Entering Link 1 = /share/apps/gaussian/g16/l1.exe PID=    358318.
  
 Copyright (c) 1988,1990,1992,1993,1995,1998,2003,2009,2016,
            Gaussian, Inc.  All Rights Reserved.
  
 This is part of the Gaussian(R) 16 program.  It is based on
 the Gaussian(R) 09 system (copyright 2009, Gaussian, Inc.),
 the Gaussian(R) 03 system (copyright 2003, Gaussian, Inc.),
 the Gaussian(R) 98 system (copyright 1998, Gaussian, Inc.),
 the Gaussian(R) 94 system (copyright 1995, Gaussian, Inc.),
 the Gaussian 92(TM) system (copyright 1992, Gaussian, Inc.),
 the Gaussian 90(TM) system (copyright 1990, Gaussian, Inc.),
 the Gaussian 88(TM) system (copyright 1988, Gaussian, Inc.),
 the Gaussian 86(TM) system (copyright 1986, Carnegie Mellon
 University), and the Gaussian 82(TM) system (copyright 1983,
 Carnegie Mellon University). Gaussian is a federally registered
 trademark of Gaussian, Inc.
  
 This software contains proprietary and confidential information,
 including trade secrets, belonging to Gaussian, Inc.
  
 This software is provided under written license and may be
 used, copied, transmitted, or stored only in accord with that
 written license.
  
 The following legend is applicable only to US Government
 contracts under FAR:
  
                    RESTRICTED RIGHTS LEGEND
  
 Use, reproduction and disclosure by the US Government is
 subject to restrictions as set forth in subparagraphs (a)
 and (c) of the Commercial Computer Software - Restricted
 Rights clause in FAR 52.227-19.
  
 Gaussian, Inc.
 340 Quinnipiac St., Bldg. 40, Wallingford CT 06492
  
  
 ---------------------------------------------------------------
 Warning -- This program may not be used in any manner that
 competes with the business of Gaussian, Inc. or will provide
 assistance to any competitor of Gaussian, Inc.  The licensee
 of this program is prohibited from giving any competitor of
 Gaussian, Inc. access to this program.  By using this program,
 the user acknowledges that Gaussian, Inc. is engaged in the
 business of creating and licensing software in the field of
 computational chemistry and represents and warrants to the
 licensee that it is not a competitor of Gaussian, Inc. and that
 it will not use this program in any manner prohibited above.
 ---------------------------------------------------------------
  

 Cite this work as:
 Gaussian 16, Revision A.03,
 M. J. Frisch, G. W. Trucks, H. B. Schlegel, G. E. Scuseria, 
 M. A. Robb, J. R. Cheeseman, G. Scalmani, V. Barone, 
 G. A. Petersson, H. Nakatsuji, X. Li, M. Caricato, A. V. Marenich, 
 J. Bloino, B. G. Janesko, R. Gomperts, B. Mennucci, H. P. Hratchian, 
 J. V. Ortiz, A. F. Izmaylov, J. L. Sonnenberg, D. Williams-Young, 
 F. Ding, F. Lipparini, F. Egidi, J. Goings, B. Peng, A. Petrone, 
 T. Henderson, D. Ranasinghe, V. G. Zakrzewski, J. Gao, N. Rega, 
 G. Zheng, W. Liang, M. Hada, M. Ehara, K. Toyota, R. Fukuda, 
 J. Hasegawa, M. Ishida, T. Nakajima, Y. Honda, O. Kitao, H. Nakai, 
 T. Vreven, K. Throssell, J. A. Montgomery, Jr., J. E. Peralta, 
 F. Ogliaro, M. J. Bearpark, J. J. Heyd, E. N. Brothers, K. N. Kudin, 
 V. N. Staroverov, T. A. Keith, R. Kobayashi, J. Normand, 
 K. Raghavachari, A. P. Rendell, J. C. Burant, S. S. Iyengar, 
 J. Tomasi, M. Cossi, J. M. Millam, M. Klene, C. Adamo, R. Cammi, 
 J. W. Ochterski, R. L. Martin, K. Morokuma, O. Farkas, 
 J. B. Foresman, and D. J. Fox, Gaussian, Inc., Wallingford CT, 2016.
 
 ******************************************
 Gaussian 16:  ES64L-G16RevA.03 25-Dec-2016
                22-Sep-2023 
 ******************************************
 %nprocshared=2
 Will use up to    2 processors via shared memory.
 %mem=2GB
 ----------------
 # 6-31g(d) wb97x
 ----------------
 1/38=1,172=1/1;
 2/12=2,17=6,18=5,40=1/2;
 3/5=1,6=6,7=1,11=2,25=1,30=1,74=-57/1,2,3;
 4//1;
 5/5=2,38=5/2;
 6/7=2,8=2,9=2,10=2,28=1/1;
 99/5=1,9=1/99;
 -----------------------
 tmpdir/M2_conf_2_40.gjf
 -----------------------
 Symbolic Z-matrix:
 Charge =  0 Multiplicity = 1
 C                     0.        0.        0. 
 H                     1.0932    0.        0. 
 H                    -0.35975   0.       -1.04776 
 H                    -0.37292   0.83869   0.70275 
 H                    -0.32686  -0.95394   0.49152 
 
                          Input orientation:                          
 ---------------------------------------------------------------------
 Center     Atomic      Atomic             Coordinates (Angstroms)
 Number     Number       Type             X           Y           Z
 ---------------------------------------------------------------------
      1          6           0        0.000000    0.000000    0.000000
      2          1           0        1.093200    0.000000    0.000000
      3          1           0       -0.359750    0.000000   -1.047760
      4          1           0       -0.372920    0.838690    0.702750
      5          1           0       -0.326860   -0.953940    0.491520
 ---------------------------------------------------------------------
                    Distance matrix (angstroms):
                    1          2          3          4          5
     1  C    0.000000
     2  H    1.093200   0.000000
     3  H    1.107800   1.791330   0.000000
     4  H    1.155996   1.829417   1.941098   0.000000
     5  H    1.121798   1.779934   1.811206   1.805620   0.000000
 Stoichiometry    CH4
 Framework group  C1[X(CH4)]
 Deg. of freedom     9
 Full point group                 C1      NOp   1
 Largest Abelian subgroup         C1      NOp   1
 Largest concise Abelian subgroup C1      NOp   1
                         Standard orientation:                         
 ---------------------------------------------------------------------
 Center     Atomic      Atomic             Coordinates (Angstroms)
 Number     Number       Type             X           Y           Z
 ---------------------------------------------------------------------
      1          6           0       -0.008278   -0.006975   -0.015545
      2          1           0       -0.152190   -0.843592    0.673257
      3          1           0       -0.912343    0.098750   -0.646980
      4          1           0        1.012435   -0.130340   -0.543989
      5          1           0        0.101765    0.917031    0.610981
 ---------------------------------------------------------------------
 Rotational constants (GHZ):         160.5564948         145.9839936         144.4537559
 Standard basis: 6-31G(d) (6D, 7F)
 There are    23 symmetry adapted cartesian basis functions of A   symmetry.
 There are    23 symmetry adapted basis functions of A   symmetry.
    23 basis functions,    44 primitive gaussians,    23 cartesian basis functions
     5 alpha electrons        5 beta electrons
       nuclear repulsion energy        13.0872403259 Hartrees.
 NAtoms=    5 NActive=    5 NUniq=    5 SFac= 1.00D+00 NAtFMM=   60 NAOKFM=F Big=F
 Integral buffers will be    131072 words long.
 Raffenetti 2 integral format.
 Two-electron integral symmetry is turned on.
 One-electron integrals computed using PRISM.
 NBasis=    23 RedAO= T EigKep=  1.94D-02  NBF=    23
 NBsUse=    23 1.00D-06 EigRej= -1.00D+00 NBFU=    23
 ExpMin= 1.61D-01 ExpMax= 3.05D+03 ExpMxC= 4.57D+02 IAcc=3 IRadAn=         5 AccDes= 0.00D+00
 Harris functional with IExCor= 4538 and IRadAn=       5 diagonalized for initial guess.
 HarFok:  IExCor= 4538 AccDes= 0.00D+00 IRadAn=         5 IDoV= 1 UseB2=F ITyADJ=14
 ICtDFT=  3500011 ScaDFX=  1.000000  1.000000  1.000000  1.000000
 FoFCou: FMM=F IPFlag=           0 FMFlag=      100000 FMFlg1=           0
         NFxFlg=           0 DoJE=T BraDBF=F KetDBF=T FulRan=T
         wScrn=  0.000000 ICntrl=       500 IOpCl=  0 I1Cent=   200000004 NGrid=           0
         NMat0=    1 NMatS0=      1 NMatT0=    0 NMatD0=    1 NMtDS0=    0 NMtDT0=    0
 Petite list used in FoFCou.
 Keep R1 ints in memory in canonical form, NReq=1800744.
 Requested convergence on RMS density matrix=1.00D-08 within 128 cycles.
 Requested convergence on MAX density matrix=1.00D-06.
 Requested convergence on             energy=1.00D-06.
 No special actions if energy rises.
 Integral accuracy reduced to 1.0D-05 until final iterations.
 Initial convergence to 1.0D-05 achieved.  Increase integral accuracy.
 SCF Done:  E(RwB97X) =  -40.4946202549     A.U. after   11 cycles
            NFock= 11  Conv=0.24D-08     -V/T= 2.0142

 **********************************************************************

            Population analysis using the SCF density.

 **********************************************************************

 Orbital symmetries:
       Occupied  (A) (A) (A) (A) (A)
       Virtual   (A) (A) (A) (A) (A) (A) (A) (A) (A) (A) (A) (A)
                 (A) (A) (A) (A) (A) (A)
 The electronic state is 1-A.
 Alpha  occ. eigenvalues --  -10.26040  -0.81070  -0.50245  -0.49086  -0.47671
 Alpha virt. eigenvalues --    0.20756   0.25620   0.27169   0.27299   0.63815
 Alpha virt. eigenvalues --    0.64420   0.66612   0.97227   1.00332   1.01127
 Alpha virt. eigenvalues --    1.04715   1.20052   1.76038   1.76907   2.26668
 Alpha virt. eigenvalues --    2.33461   2.35557   4.28811
          Condensed to atoms (all electrons):
               1          2          3          4          5
     1  C    5.132802   0.383381   0.384036   0.377776   0.379329
     2  H    0.383381   0.523147  -0.026043  -0.024044  -0.025990
     3  H    0.384036  -0.026043   0.511118  -0.014965  -0.024793
     4  H    0.377776  -0.024044  -0.014965   0.531684  -0.027619
     5  H    0.379329  -0.025990  -0.024793  -0.027619   0.539114
 Mulliken charges:
               1
     1  C   -0.657324
     2  H    0.169550
     3  H    0.170648
     4  H    0.157167
     5  H    0.159959
 Sum of Mulliken charges =   0.00000
 Mulliken charges with hydrogens summed into heavy atoms:
               1
     1  C    0.000000
 Electronic spatial extent (au):  <R**2>=             36.4682
 Charge=              0.0000 electrons
 Dipole moment (field-independent basis, Debye):
    X=             -0.0162    Y=              0.0093    Z=              0.0813  Tot=              0.0834
 Quadrupole moment (field-independent basis, Debye-Ang):
   XX=             -8.0259   YY=             -8.4503   ZZ=             -8.4940
   XY=              0.0088   XZ=              0.0557   YZ=             -0.0522
 Traceless Quadrupole moment (field-independent basis, Debye-Ang):
   XX=              0.2975   YY=             -0.1269   ZZ=             -0.1706
   XY=              0.0088   XZ=              0.0557   YZ=             -0.0522
 Octapole moment (field-independent basis, Debye-Ang**2):
  XXX=              0.0615  YYY=              0.0673  ZZZ=              0.2890  XYY=             -0.0543
  XXY=             -0.0396  XXZ=             -0.7834  XZZ=             -0.1544  YZZ=             -0.0474
  YYZ=              0.7445  XYZ=              0.2039
 Hexadecapole moment (field-independent basis, Debye-Ang**3):
 XXXX=            -15.9071 YYYY=            -15.4887 ZZZZ=            -16.0526 XXXY=             -0.2155
 XXXZ=              0.0402 YYYX=              0.2099 YYYZ=             -0.0317 ZZZX=              0.1879
 ZZZY=             -0.1716 XXYY=             -5.7424 XXZZ=             -5.0412 YYZZ=             -4.8689
 XXYZ=             -0.0260 YYXZ=              0.0155 ZZXY=              0.0288
 N-N= 1.308724032595D+01 E-N=-1.190826188394D+02  KE= 3.992716328030D+01
 1\1\GINC-NODE67\SP\RwB97X\6-31G(d)\C1H4\YANZ\22-Sep-2023\0\\# 6-31g(d)
  wb97x\\tmpdir/M2_conf_2_40.gjf\\0,1\C,0,0.,0.,0.\H,0,1.0932,0.,0.\H,0
 ,-0.35975,0.,-1.04776\H,0,-0.37292,0.83869,0.70275\H,0,-0.32686,-0.953
 94,0.49152\\Version=ES64L-G16RevA.03\State=1-A\HF=-40.4946203\RMSD=2.4
 35e-09\Dipole=0.0181879,-0.0263512,0.0071441\Quadrupole=-0.0698907,-0.
 1172077,0.1870984,0.0051095,-0.0211663,0.1137105\PG=C01 [X(C1H4)]\\@


 NO MATTER HOW THIN YOU SLICE IT, IT'S STILL BALONEY

                                   -- ALFRED E. SMITH
 Job cpu time:       0 days  0 hours  0 minutes  5.1 seconds.
 Elapsed time:       0 days  0 hours  0 minutes  2.6 seconds.
 File lengths (MBytes):  RWF=      6 Int=      0 D2E=      0 Chk=      1 Scr=      1
 Normal termination of Gaussian 16 at Fri Sep 22 16:32:43 2023.
