 Entering Gaussian System, Link 0=g16
 Initial command:
 /share/apps/gaussian/g16/l1.exe "/tmp/55568.mgr/Gau-357012.inp" -scrdir="/tmp/55568.mgr/"
 Entering Link 1 = /share/apps/gaussian/g16/l1.exe PID=    357013.
  
 Copyright (c) 1988,1990,1992,1993,1995,1998,2003,2009,2016,
            Gaussian, Inc.  All Rights Reserved.
  
 This is part of the Gaussian(R) 16 program.  It is based on
 the Gaussian(R) 09 system (copyright 2009, Gaussian, Inc.),
 the Gaussian(R) 03 system (copyright 2003, Gaussian, Inc.),
 the Gaussian(R) 98 system (copyright 1998, Gaussian, Inc.),
 the Gaussian(R) 94 system (copyright 1995, Gaussian, Inc.),
 the Gaussian 92(TM) system (copyright 1992, Gaussian, Inc.),
 the Gaussian 90(TM) system (copyright 1990, Gaussian, Inc.),
 the Gaussian 88(TM) system (copyright 1988, Gaussian, Inc.),
 the Gaussian 86(TM) system (copyright 1986, Carnegie Mellon
 University), and the Gaussian 82(TM) system (copyright 1983,
 Carnegie Mellon University). Gaussian is a federally registered
 trademark of Gaussian, Inc.
  
 This software contains proprietary and confidential information,
 including trade secrets, belonging to Gaussian, Inc.
  
 This software is provided under written license and may be
 used, copied, transmitted, or stored only in accord with that
 written license.
  
 The following legend is applicable only to US Government
 contracts under FAR:
  
                    RESTRICTED RIGHTS LEGEND
  
 Use, reproduction and disclosure by the US Government is
 subject to restrictions as set forth in subparagraphs (a)
 and (c) of the Commercial Computer Software - Restricted
 Rights clause in FAR 52.227-19.
  
 Gaussian, Inc.
 340 Quinnipiac St., Bldg. 40, Wallingford CT 06492
  
  
 ---------------------------------------------------------------
 Warning -- This program may not be used in any manner that
 competes with the business of Gaussian, Inc. or will provide
 assistance to any competitor of Gaussian, Inc.  The licensee
 of this program is prohibited from giving any competitor of
 Gaussian, Inc. access to this program.  By using this program,
 the user acknowledges that Gaussian, Inc. is engaged in the
 business of creating and licensing software in the field of
 computational chemistry and represents and warrants to the
 licensee that it is not a competitor of Gaussian, Inc. and that
 it will not use this program in any manner prohibited above.
 ---------------------------------------------------------------
  

 Cite this work as:
 Gaussian 16, Revision A.03,
 M. J. Frisch, G. W. Trucks, H. B. Schlegel, G. E. Scuseria, 
 M. A. Robb, J. R. Cheeseman, G. Scalmani, V. Barone, 
 G. A. Petersson, H. Nakatsuji, X. Li, M. Caricato, A. V. Marenich, 
 J. Bloino, B. G. Janesko, R. Gomperts, B. Mennucci, H. P. Hratchian, 
 J. V. Ortiz, A. F. Izmaylov, J. L. Sonnenberg, D. Williams-Young, 
 F. Ding, F. Lipparini, F. Egidi, J. Goings, B. Peng, A. Petrone, 
 T. Henderson, D. Ranasinghe, V. G. Zakrzewski, J. Gao, N. Rega, 
 G. Zheng, W. Liang, M. Hada, M. Ehara, K. Toyota, R. Fukuda, 
 J. Hasegawa, M. Ishida, T. Nakajima, Y. Honda, O. Kitao, H. Nakai, 
 T. Vreven, K. Throssell, J. A. Montgomery, Jr., J. E. Peralta, 
 F. Ogliaro, M. J. Bearpark, J. J. Heyd, E. N. Brothers, K. N. Kudin, 
 V. N. Staroverov, T. A. Keith, R. Kobayashi, J. Normand, 
 K. Raghavachari, A. P. Rendell, J. C. Burant, S. S. Iyengar, 
 J. Tomasi, M. Cossi, J. M. Millam, M. Klene, C. Adamo, R. Cammi, 
 J. W. Ochterski, R. L. Martin, K. Morokuma, O. Farkas, 
 J. B. Foresman, and D. J. Fox, Gaussian, Inc., Wallingford CT, 2016.
 
 ******************************************
 Gaussian 16:  ES64L-G16RevA.03 25-Dec-2016
                22-Sep-2023 
 ******************************************
 %nprocshared=2
 Will use up to    2 processors via shared memory.
 %mem=2GB
 ----------------
 # 6-31g(d) wb97x
 ----------------
 1/38=1,172=1/1;
 2/12=2,17=6,18=5,40=1/2;
 3/5=1,6=6,7=1,11=2,25=1,30=1,74=-57/1,2,3;
 4//1;
 5/5=2,38=5/2;
 6/7=2,8=2,9=2,10=2,28=1/1;
 99/5=1,9=1/99;
 -----------------------
 tmpdir/M2_conf_1_84.gjf
 -----------------------
 Symbolic Z-matrix:
 Charge =  0 Multiplicity = 1
 H                     0.        0.        0. 
 C                     1.0961    0.        0. 
 H                     1.39404   0.        1.05712 
 H                     1.45455   0.9497   -0.44487 
 H                     1.47043  -0.90987  -0.50435 
 
                          Input orientation:                          
 ---------------------------------------------------------------------
 Center     Atomic      Atomic             Coordinates (Angstroms)
 Number     Number       Type             X           Y           Z
 ---------------------------------------------------------------------
      1          1           0        0.000000    0.000000    0.000000
      2          6           0        1.096100    0.000000    0.000000
      3          1           0        1.394040    0.000000    1.057120
      4          1           0        1.454550    0.949700   -0.444870
      5          1           0        1.470430   -0.909870   -0.504350
 ---------------------------------------------------------------------
                    Distance matrix (angstroms):
                    1          2          3          4          5
     1  H    0.000000
     2  C    1.096100   0.000000
     3  H    1.749529   1.098304   0.000000
     4  H    1.793197   1.108299   1.778079   0.000000
     5  H    1.801221   1.105602   1.808836   1.860589   0.000000
 Stoichiometry    CH4
 Framework group  C1[X(CH4)]
 Deg. of freedom     9
 Full point group                 C1      NOp   1
 Largest Abelian subgroup         C1      NOp   1
 Largest concise Abelian subgroup C1      NOp   1
                         Standard orientation:                         
 ---------------------------------------------------------------------
 Center     Atomic      Atomic             Coordinates (Angstroms)
 Number     Number       Type             X           Y           Z
 ---------------------------------------------------------------------
      1          1           0        0.035919    0.745715   -0.793660
      2          6           0       -0.006462   -0.011344   -0.002142
      3          1           0        0.209525    0.522801    0.932903
      4          1           0        0.810655   -0.742905   -0.161719
      5          1           0       -1.017330   -0.457545    0.035332
 ---------------------------------------------------------------------
 Rotational constants (GHZ):         160.7451125         153.5676025         150.6035528
 Standard basis: 6-31G(d) (6D, 7F)
 There are    23 symmetry adapted cartesian basis functions of A   symmetry.
 There are    23 symmetry adapted basis functions of A   symmetry.
    23 basis functions,    44 primitive gaussians,    23 cartesian basis functions
     5 alpha electrons        5 beta electrons
       nuclear repulsion energy        13.2901114590 Hartrees.
 NAtoms=    5 NActive=    5 NUniq=    5 SFac= 1.00D+00 NAtFMM=   60 NAOKFM=F Big=F
 Integral buffers will be    131072 words long.
 Raffenetti 2 integral format.
 Two-electron integral symmetry is turned on.
 One-electron integrals computed using PRISM.
 NBasis=    23 RedAO= T EigKep=  1.84D-02  NBF=    23
 NBsUse=    23 1.00D-06 EigRej= -1.00D+00 NBFU=    23
 ExpMin= 1.61D-01 ExpMax= 3.05D+03 ExpMxC= 4.57D+02 IAcc=3 IRadAn=         5 AccDes= 0.00D+00
 Harris functional with IExCor= 4538 and IRadAn=       5 diagonalized for initial guess.
 HarFok:  IExCor= 4538 AccDes= 0.00D+00 IRadAn=         5 IDoV= 1 UseB2=F ITyADJ=14
 ICtDFT=  3500011 ScaDFX=  1.000000  1.000000  1.000000  1.000000
 FoFCou: FMM=F IPFlag=           0 FMFlag=      100000 FMFlg1=           0
         NFxFlg=           0 DoJE=T BraDBF=F KetDBF=T FulRan=T
         wScrn=  0.000000 ICntrl=       500 IOpCl=  0 I1Cent=   200000004 NGrid=           0
         NMat0=    1 NMatS0=      1 NMatT0=    0 NMatD0=    1 NMtDS0=    0 NMtDT0=    0
 Petite list used in FoFCou.
 Keep R1 ints in memory in canonical form, NReq=1800744.
 Requested convergence on RMS density matrix=1.00D-08 within 128 cycles.
 Requested convergence on MAX density matrix=1.00D-06.
 Requested convergence on             energy=1.00D-06.
 No special actions if energy rises.
 Integral accuracy reduced to 1.0D-05 until final iterations.
 Initial convergence to 1.0D-05 achieved.  Increase integral accuracy.
 SCF Done:  E(RwB97X) =  -40.4984362168     A.U. after   11 cycles
            NFock= 11  Conv=0.23D-08     -V/T= 2.0122

 **********************************************************************

            Population analysis using the SCF density.

 **********************************************************************

 Orbital symmetries:
       Occupied  (A) (A) (A) (A) (A)
       Virtual   (A) (A) (A) (A) (A) (A) (A) (A) (A) (A) (A) (A)
                 (A) (A) (A) (A) (A) (A)
 The electronic state is 1-A.
 Alpha  occ. eigenvalues --  -10.25274  -0.81533  -0.50091  -0.49124  -0.48753
 Alpha virt. eigenvalues --    0.21381   0.27059   0.27246   0.27481   0.63820
 Alpha virt. eigenvalues --    0.64124   0.65078   1.00484   1.00984   1.01657
 Alpha virt. eigenvalues --    1.06310   1.20705   1.75897   1.76069   2.31945
 Alpha virt. eigenvalues --    2.34984   2.36094   4.30099
          Condensed to atoms (all electrons):
               1          2          3          4          5
     1  H    0.526309   0.384127  -0.027997  -0.024464  -0.023903
     2  C    0.384127   5.127330   0.383620   0.384188   0.385246
     3  H   -0.027997   0.383620   0.528678  -0.026213  -0.023022
     4  H   -0.024464   0.384188  -0.026213   0.519891  -0.019027
     5  H   -0.023903   0.385246  -0.023022  -0.019027   0.512684
 Mulliken charges:
               1
     1  H    0.165928
     2  C   -0.664511
     3  H    0.164934
     4  H    0.165626
     5  H    0.168023
 Sum of Mulliken charges =   0.00000
 Mulliken charges with hydrogens summed into heavy atoms:
               1
     2  C    0.000000
 Electronic spatial extent (au):  <R**2>=             35.8021
 Charge=              0.0000 electrons
 Dipole moment (field-independent basis, Debye):
    X=              0.0220    Y=              0.0540    Z=              0.0083  Tot=              0.0589
 Quadrupole moment (field-independent basis, Debye-Ang):
   XX=             -8.0919   YY=             -8.3165   ZZ=             -8.4191
   XY=              0.0093   XZ=             -0.0008   YZ=             -0.0048
 Traceless Quadrupole moment (field-independent basis, Debye-Ang):
   XX=              0.1839   YY=             -0.0407   ZZ=             -0.1433
   XY=              0.0093   XZ=             -0.0008   YZ=             -0.0048
 Octapole moment (field-independent basis, Debye-Ang**2):
  XXX=             -0.3826  YYY=              0.1720  ZZZ=              0.2195  XYY=              0.2465
  XXY=             -0.6954  XXZ=             -0.0164  XZZ=              0.1772  YZZ=              0.6680
  YYZ=             -0.1856  XYZ=              0.1430
 Hexadecapole moment (field-independent basis, Debye-Ang**3):
 XXXX=            -15.2753 YYYY=            -15.7890 ZZZZ=            -15.1585 XXXY=              0.1154
 XXXZ=             -0.1320 YYYX=             -0.1921 YYYZ=             -0.1627 ZZZX=              0.1671
 ZZZY=              0.0526 XXYY=             -4.9375 XXZZ=             -5.5103 YYZZ=             -4.8303
 XXYZ=              0.0901 YYXZ=             -0.0463 ZZXY=              0.1177
 N-N= 1.329011145898D+01 E-N=-1.195548239017D+02  KE= 4.001135156396D+01
 1\1\GINC-NODE67\SP\RwB97X\6-31G(d)\C1H4\YANZ\22-Sep-2023\0\\# 6-31g(d)
  wb97x\\tmpdir/M2_conf_1_84.gjf\\0,1\H,0,0.,0.,0.\C,0,1.0961,0.,0.\H,0
 ,1.39404,0.,1.05712\H,0,1.45455,0.9497,-0.44487\H,0,1.47043,-0.90987,-
 0.50435\\Version=ES64L-G16RevA.03\State=1-A\HF=-40.4984362\RMSD=2.307e
 -09\Dipole=-0.0126654,0.0041964,0.0189651\Quadrupole=-0.0658078,0.1251
 584,-0.0593506,-0.004461,-0.0403185,0.0462396\PG=C01 [X(C1H4)]\\@


 "A LITTLE BIT GOES A LONG WAY"
 R.S. MULLIKEN AS QUOTED BY K. RUEDENBERG
 Job cpu time:       0 days  0 hours  0 minutes  5.5 seconds.
 Elapsed time:       0 days  0 hours  0 minutes  2.7 seconds.
 File lengths (MBytes):  RWF=      6 Int=      0 D2E=      0 Chk=      1 Scr=      1
 Normal termination of Gaussian 16 at Fri Sep 22 16:31:55 2023.
