 Entering Gaussian System, Link 0=g16
 Initial command:
 /share/apps/gaussian/g16/l1.exe "/tmp/55568.mgr/Gau-357733.inp" -scrdir="/tmp/55568.mgr/"
 Entering Link 1 = /share/apps/gaussian/g16/l1.exe PID=    357741.
  
 Copyright (c) 1988,1990,1992,1993,1995,1998,2003,2009,2016,
            Gaussian, Inc.  All Rights Reserved.
  
 This is part of the Gaussian(R) 16 program.  It is based on
 the Gaussian(R) 09 system (copyright 2009, Gaussian, Inc.),
 the Gaussian(R) 03 system (copyright 2003, Gaussian, Inc.),
 the Gaussian(R) 98 system (copyright 1998, Gaussian, Inc.),
 the Gaussian(R) 94 system (copyright 1995, Gaussian, Inc.),
 the Gaussian 92(TM) system (copyright 1992, Gaussian, Inc.),
 the Gaussian 90(TM) system (copyright 1990, Gaussian, Inc.),
 the Gaussian 88(TM) system (copyright 1988, Gaussian, Inc.),
 the Gaussian 86(TM) system (copyright 1986, Carnegie Mellon
 University), and the Gaussian 82(TM) system (copyright 1983,
 Carnegie Mellon University). Gaussian is a federally registered
 trademark of Gaussian, Inc.
  
 This software contains proprietary and confidential information,
 including trade secrets, belonging to Gaussian, Inc.
  
 This software is provided under written license and may be
 used, copied, transmitted, or stored only in accord with that
 written license.
  
 The following legend is applicable only to US Government
 contracts under FAR:
  
                    RESTRICTED RIGHTS LEGEND
  
 Use, reproduction and disclosure by the US Government is
 subject to restrictions as set forth in subparagraphs (a)
 and (c) of the Commercial Computer Software - Restricted
 Rights clause in FAR 52.227-19.
  
 Gaussian, Inc.
 340 Quinnipiac St., Bldg. 40, Wallingford CT 06492
  
  
 ---------------------------------------------------------------
 Warning -- This program may not be used in any manner that
 competes with the business of Gaussian, Inc. or will provide
 assistance to any competitor of Gaussian, Inc.  The licensee
 of this program is prohibited from giving any competitor of
 Gaussian, Inc. access to this program.  By using this program,
 the user acknowledges that Gaussian, Inc. is engaged in the
 business of creating and licensing software in the field of
 computational chemistry and represents and warrants to the
 licensee that it is not a competitor of Gaussian, Inc. and that
 it will not use this program in any manner prohibited above.
 ---------------------------------------------------------------
  

 Cite this work as:
 Gaussian 16, Revision A.03,
 M. J. Frisch, G. W. Trucks, H. B. Schlegel, G. E. Scuseria, 
 M. A. Robb, J. R. Cheeseman, G. Scalmani, V. Barone, 
 G. A. Petersson, H. Nakatsuji, X. Li, M. Caricato, A. V. Marenich, 
 J. Bloino, B. G. Janesko, R. Gomperts, B. Mennucci, H. P. Hratchian, 
 J. V. Ortiz, A. F. Izmaylov, J. L. Sonnenberg, D. Williams-Young, 
 F. Ding, F. Lipparini, F. Egidi, J. Goings, B. Peng, A. Petrone, 
 T. Henderson, D. Ranasinghe, V. G. Zakrzewski, J. Gao, N. Rega, 
 G. Zheng, W. Liang, M. Hada, M. Ehara, K. Toyota, R. Fukuda, 
 J. Hasegawa, M. Ishida, T. Nakajima, Y. Honda, O. Kitao, H. Nakai, 
 T. Vreven, K. Throssell, J. A. Montgomery, Jr., J. E. Peralta, 
 F. Ogliaro, M. J. Bearpark, J. J. Heyd, E. N. Brothers, K. N. Kudin, 
 V. N. Staroverov, T. A. Keith, R. Kobayashi, J. Normand, 
 K. Raghavachari, A. P. Rendell, J. C. Burant, S. S. Iyengar, 
 J. Tomasi, M. Cossi, J. M. Millam, M. Klene, C. Adamo, R. Cammi, 
 J. W. Ochterski, R. L. Martin, K. Morokuma, O. Farkas, 
 J. B. Foresman, and D. J. Fox, Gaussian, Inc., Wallingford CT, 2016.
 
 ******************************************
 Gaussian 16:  ES64L-G16RevA.03 25-Dec-2016
                22-Sep-2023 
 ******************************************
 %nprocshared=2
 Will use up to    2 processors via shared memory.
 %mem=2GB
 ----------------
 # 6-31g(d) wb97x
 ----------------
 1/38=1,172=1/1;
 2/12=2,17=6,18=5,40=1/2;
 3/5=1,6=6,7=1,11=2,25=1,30=1,74=-57/1,2,3;
 4//1;
 5/5=2,38=5/2;
 6/7=2,8=2,9=2,10=2,28=1/1;
 99/5=1,9=1/99;
 ----------------------
 tmpdir/M2_conf_2_6.gjf
 ----------------------
 Symbolic Z-matrix:
 Charge =  0 Multiplicity = 1
 C                     0.        0.        0. 
 C                     1.5131    0.        0. 
 H                    -0.47432   0.       -1.02089 
 O                    -0.62897  -0.0302    0.98835 
 H                     1.96654   0.16238   0.99484 
 H                     1.85771   0.74566  -0.72436 
 H                     1.84488  -0.96562  -0.41167 
 
                          Input orientation:                          
 ---------------------------------------------------------------------
 Center     Atomic      Atomic             Coordinates (Angstroms)
 Number     Number       Type             X           Y           Z
 ---------------------------------------------------------------------
      1          6           0        0.000000    0.000000    0.000000
      2          6           0        1.513100    0.000000    0.000000
      3          1           0       -0.474320    0.000000   -1.020890
      4          8           0       -0.628970   -0.030200    0.988350
      5          1           0        1.966540    0.162380    0.994840
      6          1           0        1.857710    0.745660   -0.724360
      7          1           0        1.844880   -0.965620   -0.411670
 ---------------------------------------------------------------------
                    Distance matrix (angstroms):
                    1          2          3          4          5
     1  C    0.000000
     2  C    1.513100   0.000000
     3  H    1.125698   2.234291   0.000000
     4  O    1.171901   2.359282   2.015409   0.000000
     5  H    2.209831   1.105297   3.169753   2.602653   0.000000
     6  H    2.128801   1.095200   2.466233   3.117517   1.818711
     7  H    2.122611   1.100896   2.585007   2.992491   1.807057
                    6          7
     6  H    0.000000
     7  H    1.739661   0.000000
 Stoichiometry    C2H4O
 Framework group  C1[X(C2H4O)]
 Deg. of freedom    15
 Full point group                 C1      NOp   1
 Largest Abelian subgroup         C1      NOp   1
 Largest concise Abelian subgroup C1      NOp   1
                         Standard orientation:                         
 ---------------------------------------------------------------------
 Center     Atomic      Atomic             Coordinates (Angstroms)
 Number     Number       Type             X           Y           Z
 ---------------------------------------------------------------------
      1          6           0        0.255970    0.402247   -0.009392
      2          6           0       -1.152908   -0.149577   -0.004247
      3          1           0        0.325396    1.525711    0.004911
      4          8           0        1.202242   -0.288955    0.003256
      5          1           0       -1.213828   -1.239016   -0.180575
      6          1           0       -1.744487    0.409047   -0.737347
      7          1           0       -1.603385    0.099881    0.968796
 ---------------------------------------------------------------------
 Rotational constants (GHZ):          55.5134271          10.4718706           9.3057118
 Standard basis: 6-31G(d) (6D, 7F)
 There are    53 symmetry adapted cartesian basis functions of A   symmetry.
 There are    53 symmetry adapted basis functions of A   symmetry.
    53 basis functions,   100 primitive gaussians,    53 cartesian basis functions
    12 alpha electrons       12 beta electrons
       nuclear repulsion energy        70.3264858209 Hartrees.
 NAtoms=    7 NActive=    7 NUniq=    7 SFac= 1.00D+00 NAtFMM=   60 NAOKFM=F Big=F
 Integral buffers will be    131072 words long.
 Raffenetti 2 integral format.
 Two-electron integral symmetry is turned on.
 One-electron integrals computed using PRISM.
 NBasis=    53 RedAO= T EigKep=  5.27D-03  NBF=    53
 NBsUse=    53 1.00D-06 EigRej= -1.00D+00 NBFU=    53
 ExpMin= 1.61D-01 ExpMax= 5.48D+03 ExpMxC= 8.25D+02 IAcc=3 IRadAn=         5 AccDes= 0.00D+00
 Harris functional with IExCor= 4538 and IRadAn=       5 diagonalized for initial guess.
 HarFok:  IExCor= 4538 AccDes= 0.00D+00 IRadAn=         5 IDoV= 1 UseB2=F ITyADJ=14
 ICtDFT=  3500011 ScaDFX=  1.000000  1.000000  1.000000  1.000000
 FoFCou: FMM=F IPFlag=           0 FMFlag=      100000 FMFlg1=           0
         NFxFlg=           0 DoJE=T BraDBF=F KetDBF=T FulRan=T
         wScrn=  0.000000 ICntrl=       500 IOpCl=  0 I1Cent=   200000004 NGrid=           0
         NMat0=    1 NMatS0=      1 NMatT0=    0 NMatD0=    1 NMtDS0=    0 NMtDT0=    0
 Petite list used in FoFCou.
 Keep R1 ints in memory in canonical form, NReq=3800804.
 Requested convergence on RMS density matrix=1.00D-08 within 128 cycles.
 Requested convergence on MAX density matrix=1.00D-06.
 Requested convergence on             energy=1.00D-06.
 No special actions if energy rises.
 Integral accuracy reduced to 1.0D-05 until final iterations.
 Initial convergence to 1.0D-05 achieved.  Increase integral accuracy.
 SCF Done:  E(RwB97X) =  -153.782366913     A.U. after   14 cycles
            NFock= 14  Conv=0.51D-08     -V/T= 2.0084

 **********************************************************************

            Population analysis using the SCF density.

 **********************************************************************

 Orbital symmetries:
       Occupied  (A) (A) (A) (A) (A) (A) (A) (A) (A) (A) (A) (A)
       Virtual   (A) (A) (A) (A) (A) (A) (A) (A) (A) (A) (A) (A)
                 (A) (A) (A) (A) (A) (A) (A) (A) (A) (A) (A) (A)
                 (A) (A) (A) (A) (A) (A) (A) (A) (A) (A) (A) (A)
                 (A) (A) (A) (A) (A)
 The electronic state is 1-A.
 Alpha  occ. eigenvalues --  -19.21653 -10.36330 -10.27762  -1.19364  -0.87744
 Alpha  occ. eigenvalues --   -0.69588  -0.59251  -0.55567  -0.54781  -0.50539
 Alpha  occ. eigenvalues --   -0.47353  -0.35410
 Alpha virt. eigenvalues --    0.08835   0.20552   0.22226   0.25286   0.25795
 Alpha virt. eigenvalues --    0.35100   0.38314   0.62898   0.65401   0.69289
 Alpha virt. eigenvalues --    0.70343   0.79005   0.85361   0.87164   0.95010
 Alpha virt. eigenvalues --    0.96325   0.98349   1.04007   1.06166   1.10560
 Alpha virt. eigenvalues --    1.19752   1.34550   1.49523   1.60078   1.64516
 Alpha virt. eigenvalues --    1.79658   1.91652   1.92474   1.95568   2.17500
 Alpha virt. eigenvalues --    2.22047   2.24470   2.39737   2.48830   2.67955
 Alpha virt. eigenvalues --    2.72694   2.99335   3.10417   3.95919   4.19516
 Alpha virt. eigenvalues --    4.45360
          Condensed to atoms (all electrons):
               1          2          3          4          5          6
     1  C    4.537121   0.314755   0.353187   0.613706  -0.020159  -0.022371
     2  C    0.314755   5.369312  -0.110931  -0.087059   0.365174   0.351427
     3  H    0.353187  -0.110931   0.689763  -0.055814   0.004013   0.005389
     4  O    0.613706  -0.087059  -0.055814   7.873915   0.004247   0.002433
     5  H   -0.020159   0.365174   0.004013   0.004247   0.485416  -0.017691
     6  H   -0.022371   0.351427   0.005389   0.002433  -0.017691   0.531734
     7  H   -0.022641   0.358757   0.004003   0.000565  -0.017158  -0.026107
               7
     1  C   -0.022641
     2  C    0.358757
     3  H    0.004003
     4  O    0.000565
     5  H   -0.017158
     6  H   -0.026107
     7  H    0.517290
 Mulliken charges:
               1
     1  C    0.246402
     2  C   -0.561434
     3  H    0.110390
     4  O   -0.351992
     5  H    0.196157
     6  H    0.175186
     7  H    0.185290
 Sum of Mulliken charges =  -0.00000
 Mulliken charges with hydrogens summed into heavy atoms:
               1
     1  C    0.356793
     2  C   -0.004801
     4  O   -0.351992
 Electronic spatial extent (au):  <R**2>=            164.5506
 Charge=             -0.0000 electrons
 Dipole moment (field-independent basis, Debye):
    X=             -2.2456    Y=              1.1162    Z=              0.0416  Tot=              2.5080
 Quadrupole moment (field-independent basis, Debye-Ang):
   XX=            -20.5659   YY=            -17.6174   ZZ=            -17.6553
   XY=              0.9307   XZ=             -0.1022   YZ=              0.0340
 Traceless Quadrupole moment (field-independent basis, Debye-Ang):
   XX=             -1.9530   YY=              0.9954   ZZ=              0.9576
   XY=              0.9307   XZ=             -0.1022   YZ=              0.0340
 Octapole moment (field-independent basis, Debye-Ang**2):
  XXX=              0.2271  YYY=             -1.2567  ZZZ=              0.4654  XYY=              0.8049
  XXY=              0.7002  XXZ=              0.0826  XZZ=              1.0777  YZZ=              0.0045
  YYZ=             -0.3100  XYZ=              0.0343
 Hexadecapole moment (field-independent basis, Debye-Ang**3):
 XXXX=           -144.8018 YYYY=            -41.1961 ZZZZ=            -21.9624 XXXY=             -1.8401
 XXXZ=             -0.0624 YYYX=              0.6640 YYYZ=              0.3571 ZZZX=             -0.7497
 ZZZY=             -0.0255 XXYY=            -29.9801 XXZZ=            -25.1534 YYZZ=            -11.2185
 XXYZ=             -0.2325 YYXZ=              0.4878 ZZXY=             -1.2055
 N-N= 7.032648582090D+01 E-N=-4.997706073628D+02  KE= 1.525015545526D+02
 1\1\GINC-NODE67\SP\RwB97X\6-31G(d)\C2H4O1\YANZ\22-Sep-2023\0\\# 6-31g(
 d) wb97x\\tmpdir/M2_conf_2_6.gjf\\0,1\C,0,0.,0.,0.\C,0,1.5131,0.,0.\H,
 0,-0.47432,0.,-1.02089\O,0,-0.62897,-0.0302,0.98835\H,0,1.96654,0.1623
 8,0.99484\H,0,1.85771,0.74566,-0.72436\H,0,1.84488,-0.96562,-0.41167\\
 Version=ES64L-G16RevA.03\State=1-A\HF=-153.7823669\RMSD=5.061e-09\Dipo
 le=0.6625236,-0.002702,-0.7312427\Quadrupole=-0.690062,0.7096052,-0.01
 95432,-0.085804,1.2509266,0.0669346\PG=C01 [X(C2H4O1)]\\@


 AS FAR AS THE LAWS OF MATHEMATICS REFER TO REALITY,
 THEY ARE NOT CERTAIN; AND AS FAR AS THEY ARE CERTAIN,
 THEY DO NOT REFER TO REALITY.

                                         -- ALBERT EINSTEIN
 Job cpu time:       0 days  0 hours  0 minutes 12.9 seconds.
 Elapsed time:       0 days  0 hours  0 minutes  6.5 seconds.
 File lengths (MBytes):  RWF=      6 Int=      0 D2E=      0 Chk=      1 Scr=      1
 Normal termination of Gaussian 16 at Fri Sep 22 16:32:28 2023.
