 Entering Gaussian System, Link 0=g16
 Initial command:
 /share/apps/gaussian/g16/l1.exe "/tmp/55568.mgr/Gau-358153.inp" -scrdir="/tmp/55568.mgr/"
 Entering Link 1 = /share/apps/gaussian/g16/l1.exe PID=    358155.
  
 Copyright (c) 1988,1990,1992,1993,1995,1998,2003,2009,2016,
            Gaussian, Inc.  All Rights Reserved.
  
 This is part of the Gaussian(R) 16 program.  It is based on
 the Gaussian(R) 09 system (copyright 2009, Gaussian, Inc.),
 the Gaussian(R) 03 system (copyright 2003, Gaussian, Inc.),
 the Gaussian(R) 98 system (copyright 1998, Gaussian, Inc.),
 the Gaussian(R) 94 system (copyright 1995, Gaussian, Inc.),
 the Gaussian 92(TM) system (copyright 1992, Gaussian, Inc.),
 the Gaussian 90(TM) system (copyright 1990, Gaussian, Inc.),
 the Gaussian 88(TM) system (copyright 1988, Gaussian, Inc.),
 the Gaussian 86(TM) system (copyright 1986, Carnegie Mellon
 University), and the Gaussian 82(TM) system (copyright 1983,
 Carnegie Mellon University). Gaussian is a federally registered
 trademark of Gaussian, Inc.
  
 This software contains proprietary and confidential information,
 including trade secrets, belonging to Gaussian, Inc.
  
 This software is provided under written license and may be
 used, copied, transmitted, or stored only in accord with that
 written license.
  
 The following legend is applicable only to US Government
 contracts under FAR:
  
                    RESTRICTED RIGHTS LEGEND
  
 Use, reproduction and disclosure by the US Government is
 subject to restrictions as set forth in subparagraphs (a)
 and (c) of the Commercial Computer Software - Restricted
 Rights clause in FAR 52.227-19.
  
 Gaussian, Inc.
 340 Quinnipiac St., Bldg. 40, Wallingford CT 06492
  
  
 ---------------------------------------------------------------
 Warning -- This program may not be used in any manner that
 competes with the business of Gaussian, Inc. or will provide
 assistance to any competitor of Gaussian, Inc.  The licensee
 of this program is prohibited from giving any competitor of
 Gaussian, Inc. access to this program.  By using this program,
 the user acknowledges that Gaussian, Inc. is engaged in the
 business of creating and licensing software in the field of
 computational chemistry and represents and warrants to the
 licensee that it is not a competitor of Gaussian, Inc. and that
 it will not use this program in any manner prohibited above.
 ---------------------------------------------------------------
  

 Cite this work as:
 Gaussian 16, Revision A.03,
 M. J. Frisch, G. W. Trucks, H. B. Schlegel, G. E. Scuseria, 
 M. A. Robb, J. R. Cheeseman, G. Scalmani, V. Barone, 
 G. A. Petersson, H. Nakatsuji, X. Li, M. Caricato, A. V. Marenich, 
 J. Bloino, B. G. Janesko, R. Gomperts, B. Mennucci, H. P. Hratchian, 
 J. V. Ortiz, A. F. Izmaylov, J. L. Sonnenberg, D. Williams-Young, 
 F. Ding, F. Lipparini, F. Egidi, J. Goings, B. Peng, A. Petrone, 
 T. Henderson, D. Ranasinghe, V. G. Zakrzewski, J. Gao, N. Rega, 
 G. Zheng, W. Liang, M. Hada, M. Ehara, K. Toyota, R. Fukuda, 
 J. Hasegawa, M. Ishida, T. Nakajima, Y. Honda, O. Kitao, H. Nakai, 
 T. Vreven, K. Throssell, J. A. Montgomery, Jr., J. E. Peralta, 
 F. Ogliaro, M. J. Bearpark, J. J. Heyd, E. N. Brothers, K. N. Kudin, 
 V. N. Staroverov, T. A. Keith, R. Kobayashi, J. Normand, 
 K. Raghavachari, A. P. Rendell, J. C. Burant, S. S. Iyengar, 
 J. Tomasi, M. Cossi, J. M. Millam, M. Klene, C. Adamo, R. Cammi, 
 J. W. Ochterski, R. L. Martin, K. Morokuma, O. Farkas, 
 J. B. Foresman, and D. J. Fox, Gaussian, Inc., Wallingford CT, 2016.
 
 ******************************************
 Gaussian 16:  ES64L-G16RevA.03 25-Dec-2016
                22-Sep-2023 
 ******************************************
 %nprocshared=2
 Will use up to    2 processors via shared memory.
 %mem=2GB
 ----------------
 # 6-31g(d) wb97x
 ----------------
 1/38=1,172=1/1;
 2/12=2,17=6,18=5,40=1/2;
 3/5=1,6=6,7=1,11=2,25=1,30=1,74=-57/1,2,3;
 4//1;
 5/5=2,38=5/2;
 6/7=2,8=2,9=2,10=2,28=1/1;
 99/5=1,9=1/99;
 -----------------------
 tmpdir/M2_conf_2_39.gjf
 -----------------------
 Symbolic Z-matrix:
 Charge =  0 Multiplicity = 1
 C                     0.        0.        0. 
 C                     1.5324    0.        0. 
 H                    -0.35426   0.       -1.04963 
 H                    -0.29666  -0.89125   0.6738 
 H                    -0.32051   0.93372   0.48523 
 H                     1.92933   0.7835   -0.63855 
 H                     1.83266   0.0888    1.12577 
 H                     1.85453  -0.99626  -0.35691 
 
                          Input orientation:                          
 ---------------------------------------------------------------------
 Center     Atomic      Atomic             Coordinates (Angstroms)
 Number     Number       Type             X           Y           Z
 ---------------------------------------------------------------------
      1          6           0        0.000000    0.000000    0.000000
      2          6           0        1.532400    0.000000    0.000000
      3          1           0       -0.354260    0.000000   -1.049630
      4          1           0       -0.296660   -0.891250    0.673800
      5          1           0       -0.320510    0.933720    0.485230
      6          1           0        1.929330    0.783500   -0.638550
      7          1           0        1.832660    0.088800    1.125770
      8          1           0        1.854530   -0.996260   -0.356910
 ---------------------------------------------------------------------
                    Distance matrix (angstroms):
                    1          2          3          4          5
     1  C    0.000000
     2  C    1.532400   0.000000
     3  H    1.107801   2.158983   0.000000
     4  H    1.156002   2.143314   1.941096   0.000000
     5  H    1.100004   2.130858   1.796877   1.834841   0.000000
     6  H    2.178057   1.085897   2.449008   3.079299   2.519370
     7  H    2.152646   1.168503   3.085915   2.387211   2.400067
     8  H    2.135228   1.106204   2.520148   2.387679   3.027346
                    6          7          8
     6  H    0.000000
     7  H    1.898625   0.000000
     8  H    1.803458   1.837437   0.000000
 Stoichiometry    C2H6
 Framework group  C1[X(C2H6)]
 Deg. of freedom    18
 Full point group                 C1      NOp   1
 Largest Abelian subgroup         C1      NOp   1
 Largest concise Abelian subgroup C1      NOp   1
                         Standard orientation:                         
 ---------------------------------------------------------------------
 Center     Atomic      Atomic             Coordinates (Angstroms)
 Number     Number       Type             X           Y           Z
 ---------------------------------------------------------------------
      1          6           0        0.768858   -0.009362   -0.010678
      2          6           0       -0.763408   -0.018551    0.007382
      3          1           0        1.123473   -0.955619   -0.464625
      4          1           0        1.053464    0.983090   -0.530658
      5          1           0        1.101504    0.030919    1.037049
      6          1           0       -1.149712   -0.933587    0.446301
      7          1           0       -1.062882    0.958778    0.573548
      8          1           0       -1.098547    0.083897   -1.041842
 ---------------------------------------------------------------------
 Rotational constants (GHZ):          72.9836491          20.5429655          20.1350714
 Standard basis: 6-31G(d) (6D, 7F)
 There are    42 symmetry adapted cartesian basis functions of A   symmetry.
 There are    42 symmetry adapted basis functions of A   symmetry.
    42 basis functions,    80 primitive gaussians,    42 cartesian basis functions
     9 alpha electrons        9 beta electrons
       nuclear repulsion energy        41.8375938488 Hartrees.
 NAtoms=    8 NActive=    8 NUniq=    8 SFac= 1.00D+00 NAtFMM=   60 NAOKFM=F Big=F
 Integral buffers will be    131072 words long.
 Raffenetti 2 integral format.
 Two-electron integral symmetry is turned on.
 One-electron integrals computed using PRISM.
 NBasis=    42 RedAO= T EigKep=  8.05D-03  NBF=    42
 NBsUse=    42 1.00D-06 EigRej= -1.00D+00 NBFU=    42
 ExpMin= 1.61D-01 ExpMax= 3.05D+03 ExpMxC= 4.57D+02 IAcc=3 IRadAn=         5 AccDes= 0.00D+00
 Harris functional with IExCor= 4538 and IRadAn=       5 diagonalized for initial guess.
 HarFok:  IExCor= 4538 AccDes= 0.00D+00 IRadAn=         5 IDoV= 1 UseB2=F ITyADJ=14
 ICtDFT=  3500011 ScaDFX=  1.000000  1.000000  1.000000  1.000000
 FoFCou: FMM=F IPFlag=           0 FMFlag=      100000 FMFlg1=           0
         NFxFlg=           0 DoJE=T BraDBF=F KetDBF=T FulRan=T
         wScrn=  0.000000 ICntrl=       500 IOpCl=  0 I1Cent=   200000004 NGrid=           0
         NMat0=    1 NMatS0=      1 NMatT0=    0 NMatD0=    1 NMtDS0=    0 NMtDT0=    0
 Petite list used in FoFCou.
 Keep R1 ints in memory in canonical form, NReq=2543288.
 Requested convergence on RMS density matrix=1.00D-08 within 128 cycles.
 Requested convergence on MAX density matrix=1.00D-06.
 Requested convergence on             energy=1.00D-06.
 No special actions if energy rises.
 Integral accuracy reduced to 1.0D-05 until final iterations.
 Initial convergence to 1.0D-05 achieved.  Increase integral accuracy.
 SCF Done:  E(RwB97X) =  -79.7894796171     A.U. after   12 cycles
            NFock= 12  Conv=0.37D-08     -V/T= 2.0126

 **********************************************************************

            Population analysis using the SCF density.

 **********************************************************************

 Orbital symmetries:
       Occupied  (A) (A) (A) (A) (A) (A) (A) (A) (A)
       Virtual   (A) (A) (A) (A) (A) (A) (A) (A) (A) (A) (A) (A)
                 (A) (A) (A) (A) (A) (A) (A) (A) (A) (A) (A) (A)
                 (A) (A) (A) (A) (A) (A) (A) (A) (A)
 The electronic state is 1-A.
 Alpha  occ. eigenvalues --  -10.26280 -10.26177  -0.87884  -0.71892  -0.55273
 Alpha  occ. eigenvalues --   -0.53974  -0.44936  -0.44505  -0.43162
 Alpha virt. eigenvalues --    0.18429   0.24840   0.25676   0.26118   0.27131
 Alpha virt. eigenvalues --    0.28634   0.32554   0.61280   0.66240   0.68531
 Alpha virt. eigenvalues --    0.72012   0.74523   0.78236   0.95185   0.98251
 Alpha virt. eigenvalues --    1.00376   1.03514   1.04619   1.08383   1.18112
 Alpha virt. eigenvalues --    1.52644   1.61278   1.62317   2.05172   2.11652
 Alpha virt. eigenvalues --    2.16056   2.31713   2.33383   2.37296   2.42303
 Alpha virt. eigenvalues --    2.70764   4.26083   4.48169
          Condensed to atoms (all electrons):
               1          2          3          4          5          6
     1  C    5.069357   0.346078   0.386127   0.383348   0.387873  -0.035479
     2  C    0.346078   5.073510  -0.038917  -0.041172  -0.040578   0.388700
     3  H    0.386127  -0.038917   0.543006  -0.016389  -0.029028  -0.002905
     4  H    0.383348  -0.041172  -0.016389   0.560647  -0.027044   0.004344
     5  H    0.387873  -0.040578  -0.029028  -0.027044   0.556103  -0.002908
     6  H   -0.035479   0.388700  -0.002905   0.004344  -0.002908   0.533136
     7  H   -0.041816   0.381362   0.004582  -0.002913  -0.005629  -0.019545
     8  H   -0.040769   0.387183  -0.003151  -0.005529   0.005063  -0.027250
               7          8
     1  C   -0.041816  -0.040769
     2  C    0.381362   0.387183
     3  H    0.004582  -0.003151
     4  H   -0.002913  -0.005529
     5  H   -0.005629   0.005063
     6  H   -0.019545  -0.027250
     7  H    0.574276  -0.027273
     8  H   -0.027273   0.557233
 Mulliken charges:
               1
     1  C   -0.454720
     2  C   -0.456166
     3  H    0.156676
     4  H    0.144708
     5  H    0.156148
     6  H    0.161908
     7  H    0.136955
     8  H    0.154491
 Sum of Mulliken charges =   0.00000
 Mulliken charges with hydrogens summed into heavy atoms:
               1
     1  C    0.002811
     2  C   -0.002811
 Electronic spatial extent (au):  <R**2>=            109.2741
 Charge=              0.0000 electrons
 Dipole moment (field-independent basis, Debye):
    X=             -0.0072    Y=             -0.0575    Z=              0.0129  Tot=              0.0594
 Quadrupole moment (field-independent basis, Debye-Ang):
   XX=            -16.2062   YY=            -14.2910   ZZ=            -14.8641
   XY=              0.0526   XZ=              0.1267   YZ=             -0.0486
 Traceless Quadrupole moment (field-independent basis, Debye-Ang):
   XX=             -1.0858   YY=              0.8294   ZZ=              0.2563
   XY=              0.0526   XZ=              0.1267   YZ=             -0.0486
 Octapole moment (field-independent basis, Debye-Ang**2):
  XXX=             -0.1453  YYY=             -0.3283  ZZZ=              0.0481  XYY=              0.0716
  XXY=             -0.4779  XXZ=              0.0854  XZZ=             -0.0440  YZZ=              0.0897
  YYZ=             -0.0272  XYZ=              0.0894
 Hexadecapole moment (field-independent basis, Debye-Ang**3):
 XXXX=            -93.0877 YYYY=            -30.1819 ZZZZ=            -29.1144 XXXY=              0.2531
 XXXZ=              0.4466 YYYX=              0.1936 YYYZ=             -0.0606 ZZZX=              1.6875
 ZZZY=             -0.1174 XXYY=            -19.0013 XXZZ=            -19.3548 YYZZ=             -9.9534
 XXYZ=             -0.1043 YYXZ=             -1.3911 ZZXY=             -0.0313
 N-N= 4.183759384883D+01 E-N=-2.672900416656D+02  KE= 7.879278625743D+01
 1\1\GINC-NODE67\SP\RwB97X\6-31G(d)\C2H6\YANZ\22-Sep-2023\0\\# 6-31g(d)
  wb97x\\tmpdir/M2_conf_2_39.gjf\\0,1\C,0,0.,0.,0.\C,0,1.5324,0.,0.\H,0
 ,-0.35426,0.,-1.04963\H,0,-0.29666,-0.89125,0.6738\H,0,-0.32051,0.9337
 2,0.48523\H,0,1.92933,0.7835,-0.63855\H,0,1.83266,0.0888,1.12577\H,0,1
 .85453,-0.99626,-0.35691\\Version=ES64L-G16RevA.03\State=1-A\HF=-79.78
 94796\RMSD=3.673e-09\Dipole=0.0030463,0.0142304,-0.0182781\Quadrupole=
 -0.8087882,0.2984176,0.5103706,-0.0536568,-0.0786876,-0.1868635\PG=C01
  [X(C2H6)]\\@


 THE WISE MAN HAS THE POWER TO REASON AWAY
 WHAT A FOOL BELIEVES.
                     - DOOBIE BROTHERS
 Job cpu time:       0 days  0 hours  0 minutes 10.4 seconds.
 Elapsed time:       0 days  0 hours  0 minutes  5.3 seconds.
 File lengths (MBytes):  RWF=      6 Int=      0 D2E=      0 Chk=      1 Scr=      1
 Normal termination of Gaussian 16 at Fri Sep 22 16:32:40 2023.
