 Entering Gaussian System, Link 0=g16
 Initial command:
 /share/apps/gaussian/g16/l1.exe "/tmp/55568.mgr/Gau-355176.inp" -scrdir="/tmp/55568.mgr/"
 Entering Link 1 = /share/apps/gaussian/g16/l1.exe PID=    355177.
  
 Copyright (c) 1988,1990,1992,1993,1995,1998,2003,2009,2016,
            Gaussian, Inc.  All Rights Reserved.
  
 This is part of the Gaussian(R) 16 program.  It is based on
 the Gaussian(R) 09 system (copyright 2009, Gaussian, Inc.),
 the Gaussian(R) 03 system (copyright 2003, Gaussian, Inc.),
 the Gaussian(R) 98 system (copyright 1998, Gaussian, Inc.),
 the Gaussian(R) 94 system (copyright 1995, Gaussian, Inc.),
 the Gaussian 92(TM) system (copyright 1992, Gaussian, Inc.),
 the Gaussian 90(TM) system (copyright 1990, Gaussian, Inc.),
 the Gaussian 88(TM) system (copyright 1988, Gaussian, Inc.),
 the Gaussian 86(TM) system (copyright 1986, Carnegie Mellon
 University), and the Gaussian 82(TM) system (copyright 1983,
 Carnegie Mellon University). Gaussian is a federally registered
 trademark of Gaussian, Inc.
  
 This software contains proprietary and confidential information,
 including trade secrets, belonging to Gaussian, Inc.
  
 This software is provided under written license and may be
 used, copied, transmitted, or stored only in accord with that
 written license.
  
 The following legend is applicable only to US Government
 contracts under FAR:
  
                    RESTRICTED RIGHTS LEGEND
  
 Use, reproduction and disclosure by the US Government is
 subject to restrictions as set forth in subparagraphs (a)
 and (c) of the Commercial Computer Software - Restricted
 Rights clause in FAR 52.227-19.
  
 Gaussian, Inc.
 340 Quinnipiac St., Bldg. 40, Wallingford CT 06492
  
  
 ---------------------------------------------------------------
 Warning -- This program may not be used in any manner that
 competes with the business of Gaussian, Inc. or will provide
 assistance to any competitor of Gaussian, Inc.  The licensee
 of this program is prohibited from giving any competitor of
 Gaussian, Inc. access to this program.  By using this program,
 the user acknowledges that Gaussian, Inc. is engaged in the
 business of creating and licensing software in the field of
 computational chemistry and represents and warrants to the
 licensee that it is not a competitor of Gaussian, Inc. and that
 it will not use this program in any manner prohibited above.
 ---------------------------------------------------------------
  

 Cite this work as:
 Gaussian 16, Revision A.03,
 M. J. Frisch, G. W. Trucks, H. B. Schlegel, G. E. Scuseria, 
 M. A. Robb, J. R. Cheeseman, G. Scalmani, V. Barone, 
 G. A. Petersson, H. Nakatsuji, X. Li, M. Caricato, A. V. Marenich, 
 J. Bloino, B. G. Janesko, R. Gomperts, B. Mennucci, H. P. Hratchian, 
 J. V. Ortiz, A. F. Izmaylov, J. L. Sonnenberg, D. Williams-Young, 
 F. Ding, F. Lipparini, F. Egidi, J. Goings, B. Peng, A. Petrone, 
 T. Henderson, D. Ranasinghe, V. G. Zakrzewski, J. Gao, N. Rega, 
 G. Zheng, W. Liang, M. Hada, M. Ehara, K. Toyota, R. Fukuda, 
 J. Hasegawa, M. Ishida, T. Nakajima, Y. Honda, O. Kitao, H. Nakai, 
 T. Vreven, K. Throssell, J. A. Montgomery, Jr., J. E. Peralta, 
 F. Ogliaro, M. J. Bearpark, J. J. Heyd, E. N. Brothers, K. N. Kudin, 
 V. N. Staroverov, T. A. Keith, R. Kobayashi, J. Normand, 
 K. Raghavachari, A. P. Rendell, J. C. Burant, S. S. Iyengar, 
 J. Tomasi, M. Cossi, J. M. Millam, M. Klene, C. Adamo, R. Cammi, 
 J. W. Ochterski, R. L. Martin, K. Morokuma, O. Farkas, 
 J. B. Foresman, and D. J. Fox, Gaussian, Inc., Wallingford CT, 2016.
 
 ******************************************
 Gaussian 16:  ES64L-G16RevA.03 25-Dec-2016
                22-Sep-2023 
 ******************************************
 %nprocshared=2
 Will use up to    2 processors via shared memory.
 %mem=2GB
 ----------------
 # 6-31g(d) wb97x
 ----------------
 1/38=1,172=1/1;
 2/12=2,17=6,18=5,40=1/2;
 3/5=1,6=6,7=1,11=2,25=1,30=1,74=-57/1,2,3;
 4//1;
 5/5=2,38=5/2;
 6/7=2,8=2,9=2,10=2,28=1/1;
 99/5=1,9=1/99;
 -----------------------
 tmpdir/M2_conf_0_70.gjf
 -----------------------
 Symbolic Z-matrix:
 Charge =  0 Multiplicity = 1
 O                     0.        0.        0. 
 C                     1.4324    0.        0. 
 C                     2.06292   0.        1.39514 
 H                    -0.43657   0.82559   0.28831 
 H                     1.74277  -0.87368  -0.60024 
 H                     1.77007   0.91828  -0.51658 
 H                     1.78377  -0.86693   2.02192 
 H                     1.79147   0.93055   1.90684 
 H                     3.15244   0.03823   1.26196 
 
                          Input orientation:                          
 ---------------------------------------------------------------------
 Center     Atomic      Atomic             Coordinates (Angstroms)
 Number     Number       Type             X           Y           Z
 ---------------------------------------------------------------------
      1          8           0        0.000000    0.000000    0.000000
      2          6           0        1.432400    0.000000    0.000000
      3          6           0        2.062920    0.000000    1.395140
      4          1           0       -0.436570    0.825590    0.288310
      5          1           0        1.742770   -0.873680   -0.600240
      6          1           0        1.770070    0.918280   -0.516580
      7          1           0        1.783770   -0.866930    2.021920
      8          1           0        1.791470    0.930550    1.906840
      9          1           0        3.152440    0.038230    1.261960
 ---------------------------------------------------------------------
                    Distance matrix (angstroms):
                    1          2          3          4          5
     1  O    0.000000
     2  C    1.432400   0.000000
     3  C    2.490392   1.531003   0.000000
     4  H    0.977402   2.063437   2.855542   0.000000
     5  H    2.039817   1.104506   2.201671   2.902854   0.000000
     6  H    2.059913   1.106397   2.140951   2.350681   1.794120
     7  H    2.832236   2.227822   1.105597   3.286326   2.622489
     8  H    2.776928   2.151951   1.096105   2.755870   3.089186
     9  H    3.395863   2.133669   1.098295   3.801174   2.507297
                    6          7          8          9
     6  H    0.000000
     7  H    3.103409   0.000000
     8  H    2.423546   1.801177   0.000000
     9  H    2.418396   1.808345   1.750527   0.000000
 Stoichiometry    C2H6O
 Framework group  C1[X(C2H6O)]
 Deg. of freedom    21
 Full point group                 C1      NOp   1
 Largest Abelian subgroup         C1      NOp   1
 Largest concise Abelian subgroup C1      NOp   1
                         Standard orientation:                         
 ---------------------------------------------------------------------
 Center     Atomic      Atomic             Coordinates (Angstroms)
 Number     Number       Type             X           Y           Z
 ---------------------------------------------------------------------
      1          8           0       -1.251437   -0.249437   -0.118484
      2          6           0       -0.069389    0.545088    0.034038
      3          6           0        1.237230   -0.250612   -0.025801
      4          1           0       -1.479709   -0.839855    0.626239
      5          1           0       -0.119287    1.328103   -0.743349
      6          1           0       -0.115800    1.032431    1.026236
      7          1           0        1.392145   -0.802910   -0.970954
      8          1           0        1.267244   -0.947030    0.820098
      9          1           0        2.059854    0.457902    0.140185
 ---------------------------------------------------------------------
 Rotational constants (GHZ):          34.8277838           8.8290827           7.8910476
 Standard basis: 6-31G(d) (6D, 7F)
 There are    57 symmetry adapted cartesian basis functions of A   symmetry.
 There are    57 symmetry adapted basis functions of A   symmetry.
    57 basis functions,   108 primitive gaussians,    57 cartesian basis functions
    13 alpha electrons       13 beta electrons
       nuclear repulsion energy        80.7463655841 Hartrees.
 NAtoms=    9 NActive=    9 NUniq=    9 SFac= 1.00D+00 NAtFMM=   60 NAOKFM=F Big=F
 Integral buffers will be    131072 words long.
 Raffenetti 2 integral format.
 Two-electron integral symmetry is turned on.
 One-electron integrals computed using PRISM.
 NBasis=    57 RedAO= T EigKep=  6.19D-03  NBF=    57
 NBsUse=    57 1.00D-06 EigRej= -1.00D+00 NBFU=    57
 ExpMin= 1.61D-01 ExpMax= 5.48D+03 ExpMxC= 8.25D+02 IAcc=3 IRadAn=         5 AccDes= 0.00D+00
 Harris functional with IExCor= 4538 and IRadAn=       5 diagonalized for initial guess.
 HarFok:  IExCor= 4538 AccDes= 0.00D+00 IRadAn=         5 IDoV= 1 UseB2=F ITyADJ=14
 ICtDFT=  3500011 ScaDFX=  1.000000  1.000000  1.000000  1.000000
 FoFCou: FMM=F IPFlag=           0 FMFlag=      100000 FMFlg1=           0
         NFxFlg=           0 DoJE=T BraDBF=F KetDBF=T FulRan=T
         wScrn=  0.000000 ICntrl=       500 IOpCl=  0 I1Cent=   200000004 NGrid=           0
         NMat0=    1 NMatS0=      1 NMatT0=    0 NMatD0=    1 NMtDS0=    0 NMtDT0=    0
 Petite list used in FoFCou.
 Keep R1 ints in memory in canonical form, NReq=4494208.
 Requested convergence on RMS density matrix=1.00D-08 within 128 cycles.
 Requested convergence on MAX density matrix=1.00D-06.
 Requested convergence on             energy=1.00D-06.
 No special actions if energy rises.
 Integral accuracy reduced to 1.0D-05 until final iterations.
 Initial convergence to 1.0D-05 achieved.  Increase integral accuracy.
 SCF Done:  E(RwB97X) =  -154.985480628     A.U. after   13 cycles
            NFock= 13  Conv=0.31D-08     -V/T= 2.0099

 **********************************************************************

            Population analysis using the SCF density.

 **********************************************************************

 Orbital symmetries:
       Occupied  (A) (A) (A) (A) (A) (A) (A) (A) (A) (A) (A) (A)
                 (A)
       Virtual   (A) (A) (A) (A) (A) (A) (A) (A) (A) (A) (A) (A)
                 (A) (A) (A) (A) (A) (A) (A) (A) (A) (A) (A) (A)
                 (A) (A) (A) (A) (A) (A) (A) (A) (A) (A) (A) (A)
                 (A) (A) (A) (A) (A) (A) (A) (A)
 The electronic state is 1-A.
 Alpha  occ. eigenvalues --  -19.19973 -10.31522 -10.26042  -1.12296  -0.87195
 Alpha  occ. eigenvalues --   -0.74001  -0.60837  -0.56043  -0.52356  -0.48769
 Alpha  occ. eigenvalues --   -0.46731  -0.41018  -0.36220
 Alpha virt. eigenvalues --    0.17408   0.21542   0.24526   0.25589   0.26730
 Alpha virt. eigenvalues --    0.28954   0.32189   0.34516   0.63636   0.65497
 Alpha virt. eigenvalues --    0.67753   0.68558   0.76673   0.78689   0.91994
 Alpha virt. eigenvalues --    0.97528   0.99073   1.01259   1.01898   1.06410
 Alpha virt. eigenvalues --    1.10021   1.13286   1.13739   1.28700   1.44520
 Alpha virt. eigenvalues --    1.55434   1.66151   1.68804   1.85740   1.90645
 Alpha virt. eigenvalues --    2.01581   2.05342   2.19038   2.22221   2.33231
 Alpha virt. eigenvalues --    2.38701   2.43392   2.51965   2.65211   2.74945
 Alpha virt. eigenvalues --    2.92936   3.84636   4.29441   4.51985
          Condensed to atoms (all electrons):
               1          2          3          4          5          6
     1  O    8.262707   0.257886  -0.049599   0.244722  -0.037207  -0.037599
     2  C    0.257886   4.758445   0.348386  -0.021719   0.396065   0.382130
     3  C   -0.049599   0.348386   5.172779  -0.002148  -0.044938  -0.054056
     4  H    0.244722  -0.021719  -0.002148   0.378754   0.005312  -0.006228
     5  H   -0.037207   0.396065  -0.044938   0.005312   0.553048  -0.036646
     6  H   -0.037599   0.382130  -0.054056  -0.006228  -0.036646   0.623401
     7  H    0.001563  -0.026293   0.379747  -0.000380  -0.003769   0.004651
     8  H   -0.000552  -0.031939   0.378489   0.002732   0.004372  -0.006233
     9  H    0.003199  -0.026222   0.355016  -0.000074  -0.000165   0.000986
               7          8          9
     1  O    0.001563  -0.000552   0.003199
     2  C   -0.026293  -0.031939  -0.026222
     3  C    0.379747   0.378489   0.355016
     4  H   -0.000380   0.002732  -0.000074
     5  H   -0.003769   0.004372  -0.000165
     6  H    0.004651  -0.006233   0.000986
     7  H    0.521902  -0.026891  -0.021945
     8  H   -0.026891   0.559248  -0.028225
     9  H   -0.021945  -0.028225   0.564865
 Mulliken charges:
               1
     1  O   -0.645120
     2  C   -0.036739
     3  C   -0.483676
     4  H    0.399030
     5  H    0.163928
     6  H    0.129594
     7  H    0.171416
     8  H    0.149000
     9  H    0.152567
 Sum of Mulliken charges =  -0.00000
 Mulliken charges with hydrogens summed into heavy atoms:
               1
     1  O   -0.246091
     2  C    0.256783
     3  C   -0.010693
 Electronic spatial extent (au):  <R**2>=            198.6654
 Charge=             -0.0000 electrons
 Dipole moment (field-independent basis, Debye):
    X=              0.9113    Y=             -0.1607    Z=              1.3820  Tot=              1.6632
 Quadrupole moment (field-independent basis, Debye-Ang):
   XX=            -21.1689   YY=            -18.5293   ZZ=            -18.8337
   XY=              1.3357   XZ=             -2.3307   YZ=             -1.4284
 Traceless Quadrupole moment (field-independent basis, Debye-Ang):
   XX=             -1.6583   YY=              0.9813   ZZ=              0.6769
   XY=              1.3357   XZ=             -2.3307   YZ=             -1.4284
 Octapole moment (field-independent basis, Debye-Ang**2):
  XXX=             -4.8306  YYY=             -1.8127  ZZZ=              0.5683  XYY=             -3.4025
  XXY=             -2.5075  XXZ=              3.5096  XZZ=             -2.5601  YZZ=             -1.0902
  YYZ=              0.6281  XYZ=              2.1886
 Hexadecapole moment (field-independent basis, Debye-Ang**3):
 XXXX=           -163.1677 YYYY=            -53.4138 ZZZZ=            -33.1525 XXXY=              9.1563
 XXXZ=             -5.4977 YYYX=              4.1793 YYYZ=             -2.4712 ZZZX=             -2.0347
 ZZZY=             -1.0047 XXYY=            -32.8022 XXZZ=            -31.2536 YYZZ=            -12.8696
 XXYZ=             -2.3863 YYXZ=             -1.6223 ZZXY=              0.6164
 N-N= 8.074636558413D+01 E-N=-5.232147096393D+02  KE= 1.534643596490D+02
 1\1\GINC-NODE67\SP\RwB97X\6-31G(d)\C2H6O1\YANZ\22-Sep-2023\0\\# 6-31g(
 d) wb97x\\tmpdir/M2_conf_0_70.gjf\\0,1\O,0,0.,0.,0.\C,0,1.4324,0.,0.\C
 ,0,2.06292,0.,1.39514\H,0,-0.43657,0.82559,0.28831\H,0,1.74277,-0.8736
 8,-0.60024\H,0,1.77007,0.91828,-0.51658\H,0,1.78377,-0.86693,2.02192\H
 ,0,1.79147,0.93055,1.90684\H,0,3.15244,0.03823,1.26196\\Version=ES64L-
 G16RevA.03\State=1-A\HF=-154.9854806\RMSD=3.110e-09\Dipole=0.3187124,0
 .533652,0.2044807\Quadrupole=-0.1302587,0.9258745,-0.7956158,-2.072158
 ,-1.1003071,-0.1068221\PG=C01 [X(C2H6O1)]\\@


 IF YOU DON'T HAVE THE LAW - ARGUE THE FACTS.
 IF YOU DON'T HAVE THE FACTS - ARGUE THE LAW.
 IF YOU DON'T HAVE EITHER - POUND THE TABLE.
 Job cpu time:       0 days  0 hours  0 minutes 15.9 seconds.
 Elapsed time:       0 days  0 hours  0 minutes  8.0 seconds.
 File lengths (MBytes):  RWF=      6 Int=      0 D2E=      0 Chk=      1 Scr=      1
 Normal termination of Gaussian 16 at Fri Sep 22 16:30:45 2023.
