 Entering Gaussian System, Link 0=g16
 Initial command:
 /share/apps/gaussian/g16/l1.exe "/tmp/55568.mgr/Gau-354650.inp" -scrdir="/tmp/55568.mgr/"
 Entering Link 1 = /share/apps/gaussian/g16/l1.exe PID=    354652.
  
 Copyright (c) 1988,1990,1992,1993,1995,1998,2003,2009,2016,
            Gaussian, Inc.  All Rights Reserved.
  
 This is part of the Gaussian(R) 16 program.  It is based on
 the Gaussian(R) 09 system (copyright 2009, Gaussian, Inc.),
 the Gaussian(R) 03 system (copyright 2003, Gaussian, Inc.),
 the Gaussian(R) 98 system (copyright 1998, Gaussian, Inc.),
 the Gaussian(R) 94 system (copyright 1995, Gaussian, Inc.),
 the Gaussian 92(TM) system (copyright 1992, Gaussian, Inc.),
 the Gaussian 90(TM) system (copyright 1990, Gaussian, Inc.),
 the Gaussian 88(TM) system (copyright 1988, Gaussian, Inc.),
 the Gaussian 86(TM) system (copyright 1986, Carnegie Mellon
 University), and the Gaussian 82(TM) system (copyright 1983,
 Carnegie Mellon University). Gaussian is a federally registered
 trademark of Gaussian, Inc.
  
 This software contains proprietary and confidential information,
 including trade secrets, belonging to Gaussian, Inc.
  
 This software is provided under written license and may be
 used, copied, transmitted, or stored only in accord with that
 written license.
  
 The following legend is applicable only to US Government
 contracts under FAR:
  
                    RESTRICTED RIGHTS LEGEND
  
 Use, reproduction and disclosure by the US Government is
 subject to restrictions as set forth in subparagraphs (a)
 and (c) of the Commercial Computer Software - Restricted
 Rights clause in FAR 52.227-19.
  
 Gaussian, Inc.
 340 Quinnipiac St., Bldg. 40, Wallingford CT 06492
  
  
 ---------------------------------------------------------------
 Warning -- This program may not be used in any manner that
 competes with the business of Gaussian, Inc. or will provide
 assistance to any competitor of Gaussian, Inc.  The licensee
 of this program is prohibited from giving any competitor of
 Gaussian, Inc. access to this program.  By using this program,
 the user acknowledges that Gaussian, Inc. is engaged in the
 business of creating and licensing software in the field of
 computational chemistry and represents and warrants to the
 licensee that it is not a competitor of Gaussian, Inc. and that
 it will not use this program in any manner prohibited above.
 ---------------------------------------------------------------
  

 Cite this work as:
 Gaussian 16, Revision A.03,
 M. J. Frisch, G. W. Trucks, H. B. Schlegel, G. E. Scuseria, 
 M. A. Robb, J. R. Cheeseman, G. Scalmani, V. Barone, 
 G. A. Petersson, H. Nakatsuji, X. Li, M. Caricato, A. V. Marenich, 
 J. Bloino, B. G. Janesko, R. Gomperts, B. Mennucci, H. P. Hratchian, 
 J. V. Ortiz, A. F. Izmaylov, J. L. Sonnenberg, D. Williams-Young, 
 F. Ding, F. Lipparini, F. Egidi, J. Goings, B. Peng, A. Petrone, 
 T. Henderson, D. Ranasinghe, V. G. Zakrzewski, J. Gao, N. Rega, 
 G. Zheng, W. Liang, M. Hada, M. Ehara, K. Toyota, R. Fukuda, 
 J. Hasegawa, M. Ishida, T. Nakajima, Y. Honda, O. Kitao, H. Nakai, 
 T. Vreven, K. Throssell, J. A. Montgomery, Jr., J. E. Peralta, 
 F. Ogliaro, M. J. Bearpark, J. J. Heyd, E. N. Brothers, K. N. Kudin, 
 V. N. Staroverov, T. A. Keith, R. Kobayashi, J. Normand, 
 K. Raghavachari, A. P. Rendell, J. C. Burant, S. S. Iyengar, 
 J. Tomasi, M. Cossi, J. M. Millam, M. Klene, C. Adamo, R. Cammi, 
 J. W. Ochterski, R. L. Martin, K. Morokuma, O. Farkas, 
 J. B. Foresman, and D. J. Fox, Gaussian, Inc., Wallingford CT, 2016.
 
 ******************************************
 Gaussian 16:  ES64L-G16RevA.03 25-Dec-2016
                22-Sep-2023 
 ******************************************
 %nprocshared=2
 Will use up to    2 processors via shared memory.
 %mem=2GB
 ----------------
 # 6-31g(d) wb97x
 ----------------
 1/38=1,172=1/1;
 2/12=2,17=6,18=5,40=1/2;
 3/5=1,6=6,7=1,11=2,25=1,30=1,74=-57/1,2,3;
 4//1;
 5/5=2,38=5/2;
 6/7=2,8=2,9=2,10=2,28=1/1;
 99/5=1,9=1/99;
 -----------------------
 tmpdir/M2_conf_0_16.gjf
 -----------------------
 Symbolic Z-matrix:
 Charge =  0 Multiplicity = 1
 C                     0.        0.        0. 
 C                     1.4987    0.        0. 
 H                     1.81873   0.        1.05336 
 H                    -0.47432  -0.93911   0.40037 
 O                    -0.62897   0.92095  -0.35999 
 H                     1.95214   0.85137  -0.53967 
 H                     1.84331  -0.95876  -0.40185 
 
                          Input orientation:                          
 ---------------------------------------------------------------------
 Center     Atomic      Atomic             Coordinates (Angstroms)
 Number     Number       Type             X           Y           Z
 ---------------------------------------------------------------------
      1          6           0        0.000000    0.000000    0.000000
      2          6           0        1.498700    0.000000    0.000000
      3          1           0        1.818730    0.000000    1.053360
      4          1           0       -0.474320   -0.939110    0.400370
      5          8           0       -0.628970    0.920950   -0.359990
      6          1           0        1.952140    0.851370   -0.539670
      7          1           0        1.843310   -0.958760   -0.401850
 ---------------------------------------------------------------------
                    Distance matrix (angstroms):
                    1          2          3          4          5
     1  C    0.000000
     2  C    1.498700   0.000000
     3  H    2.101748   1.100903   0.000000
     4  H    1.125701   2.221493   2.562499   0.000000
     5  O    1.171898   2.346214   2.972700   2.015412   0.000000
     6  H    2.197026   1.105297   1.811180   3.158671   2.588292
     7  H    2.116246   1.095199   1.742831   2.452621   3.105999
                    6          7
     6  H    0.000000
     7  H    1.818628   0.000000
 Stoichiometry    C2H4O
 Framework group  C1[X(C2H4O)]
 Deg. of freedom    15
 Full point group                 C1      NOp   1
 Largest Abelian subgroup         C1      NOp   1
 Largest concise Abelian subgroup C1      NOp   1
                         Standard orientation:                         
 ---------------------------------------------------------------------
 Center     Atomic      Atomic             Coordinates (Angstroms)
 Number     Number       Type             X           Y           Z
 ---------------------------------------------------------------------
      1          6           0        0.248798    0.401093   -0.010109
      2          6           0       -1.144328   -0.151414   -0.003926
      3          1           0       -1.585277    0.103249    0.972136
      4          1           0        0.313435    1.524867    0.002447
      5          8           0        1.198009   -0.286048    0.003267
      6          1           0       -1.200644   -1.241348   -0.178729
      7          1           0       -1.738405    0.403546   -0.737786
 ---------------------------------------------------------------------
 Rotational constants (GHZ):          55.6611587          10.5928529           9.4076711
 Standard basis: 6-31G(d) (6D, 7F)
 There are    53 symmetry adapted cartesian basis functions of A   symmetry.
 There are    53 symmetry adapted basis functions of A   symmetry.
    53 basis functions,   100 primitive gaussians,    53 cartesian basis functions
    12 alpha electrons       12 beta electrons
       nuclear repulsion energy        70.5735464433 Hartrees.
 NAtoms=    7 NActive=    7 NUniq=    7 SFac= 1.00D+00 NAtFMM=   60 NAOKFM=F Big=F
 Integral buffers will be    131072 words long.
 Raffenetti 2 integral format.
 Two-electron integral symmetry is turned on.
 One-electron integrals computed using PRISM.
 NBasis=    53 RedAO= T EigKep=  5.19D-03  NBF=    53
 NBsUse=    53 1.00D-06 EigRej= -1.00D+00 NBFU=    53
 ExpMin= 1.61D-01 ExpMax= 5.48D+03 ExpMxC= 8.25D+02 IAcc=3 IRadAn=         5 AccDes= 0.00D+00
 Harris functional with IExCor= 4538 and IRadAn=       5 diagonalized for initial guess.
 HarFok:  IExCor= 4538 AccDes= 0.00D+00 IRadAn=         5 IDoV= 1 UseB2=F ITyADJ=14
 ICtDFT=  3500011 ScaDFX=  1.000000  1.000000  1.000000  1.000000
 FoFCou: FMM=F IPFlag=           0 FMFlag=      100000 FMFlg1=           0
         NFxFlg=           0 DoJE=T BraDBF=F KetDBF=T FulRan=T
         wScrn=  0.000000 ICntrl=       500 IOpCl=  0 I1Cent=   200000004 NGrid=           0
         NMat0=    1 NMatS0=      1 NMatT0=    0 NMatD0=    1 NMtDS0=    0 NMtDT0=    0
 Petite list used in FoFCou.
 Keep R1 ints in memory in canonical form, NReq=3800804.
 Requested convergence on RMS density matrix=1.00D-08 within 128 cycles.
 Requested convergence on MAX density matrix=1.00D-06.
 Requested convergence on             energy=1.00D-06.
 No special actions if energy rises.
 Integral accuracy reduced to 1.0D-05 until final iterations.
 Initial convergence to 1.0D-05 achieved.  Increase integral accuracy.
 SCF Done:  E(RwB97X) =  -153.782232071     A.U. after   14 cycles
            NFock= 14  Conv=0.68D-08     -V/T= 2.0082

 **********************************************************************

            Population analysis using the SCF density.

 **********************************************************************

 Orbital symmetries:
       Occupied  (A) (A) (A) (A) (A) (A) (A) (A) (A) (A) (A) (A)
       Virtual   (A) (A) (A) (A) (A) (A) (A) (A) (A) (A) (A) (A)
                 (A) (A) (A) (A) (A) (A) (A) (A) (A) (A) (A) (A)
                 (A) (A) (A) (A) (A) (A) (A) (A) (A) (A) (A) (A)
                 (A) (A) (A) (A) (A)
 The electronic state is 1-A.
 Alpha  occ. eigenvalues --  -19.21542 -10.36181 -10.27707  -1.19316  -0.88054
 Alpha  occ. eigenvalues --   -0.69531  -0.59335  -0.55776  -0.54806  -0.50481
 Alpha  occ. eigenvalues --   -0.47264  -0.35395
 Alpha virt. eigenvalues --    0.08912   0.20489   0.22279   0.25230   0.25805
 Alpha virt. eigenvalues --    0.35390   0.38510   0.63031   0.65500   0.69200
 Alpha virt. eigenvalues --    0.70437   0.79124   0.85352   0.87277   0.95064
 Alpha virt. eigenvalues --    0.96312   0.98289   1.03992   1.06252   1.10622
 Alpha virt. eigenvalues --    1.19825   1.34620   1.49273   1.60241   1.64544
 Alpha virt. eigenvalues --    1.79804   1.92004   1.93385   1.96056   2.18095
 Alpha virt. eigenvalues --    2.22714   2.24232   2.40055   2.49293   2.68802
 Alpha virt. eigenvalues --    2.72989   3.00093   3.10603   3.96159   4.20147
 Alpha virt. eigenvalues --    4.45358
          Condensed to atoms (all electrons):
               1          2          3          4          5          6
     1  C    4.535187   0.314797  -0.023599   0.354282   0.615366  -0.020456
     2  C    0.314797   5.372878   0.358229  -0.113166  -0.088737   0.364568
     3  H   -0.023599   0.358229   0.517237   0.004135   0.000513  -0.016534
     4  H    0.354282  -0.113166   0.004135   0.692225  -0.056087   0.004193
     5  O    0.615366  -0.088737   0.000513  -0.056087   7.876199   0.004373
     6  H   -0.020456   0.364568  -0.016534   0.004193   0.004373   0.484879
     7  H   -0.022714   0.351159  -0.025603   0.005444   0.002517  -0.017585
               7
     1  C   -0.022714
     2  C    0.351159
     3  H   -0.025603
     4  H    0.005444
     5  O    0.002517
     6  H   -0.017585
     7  H    0.531208
 Mulliken charges:
               1
     1  C    0.247136
     2  C   -0.559727
     3  H    0.185622
     4  H    0.108974
     5  O   -0.354143
     6  H    0.196562
     7  H    0.175576
 Sum of Mulliken charges =   0.00000
 Mulliken charges with hydrogens summed into heavy atoms:
               1
     1  C    0.356110
     2  C   -0.001967
     5  O   -0.354143
 Electronic spatial extent (au):  <R**2>=            163.3019
 Charge=             -0.0000 electrons
 Dipole moment (field-independent basis, Debye):
    X=             -2.2694    Y=              1.1021    Z=              0.0408  Tot=              2.5232
 Quadrupole moment (field-independent basis, Debye-Ang):
   XX=            -20.5930   YY=            -17.6200   ZZ=            -17.6238
   XY=              0.9059   XZ=             -0.0937   YZ=              0.0404
 Traceless Quadrupole moment (field-independent basis, Debye-Ang):
   XX=             -1.9808   YY=              0.9923   ZZ=              0.9884
   XY=              0.9059   XZ=             -0.0937   YZ=              0.0404
 Octapole moment (field-independent basis, Debye-Ang**2):
  XXX=              0.2656  YYY=             -1.2957  ZZZ=              0.4705  XYY=              0.7810
  XXY=              0.6987  XXZ=              0.0459  XZZ=              1.0389  YZZ=              0.0120
  YYZ=             -0.3125  XYZ=              0.0250
 Hexadecapole moment (field-independent basis, Debye-Ang**3):
 XXXX=           -143.3361 YYYY=            -41.1852 ZZZZ=            -21.9254 XXXY=             -1.8527
 XXXZ=              0.0291 YYYX=              0.6511 YYYZ=              0.3606 ZZZX=             -0.7389
 ZZZY=             -0.0131 XXYY=            -29.7353 XXZZ=            -24.8941 YYZZ=            -11.2104
 XXYZ=             -0.2202 YYXZ=              0.4812 ZZXY=             -1.2049
 N-N= 7.057354644326D+01 E-N=-5.002871376964D+02  KE= 1.525284402171D+02
 1\1\GINC-NODE67\SP\RwB97X\6-31G(d)\C2H4O1\YANZ\22-Sep-2023\0\\# 6-31g(
 d) wb97x\\tmpdir/M2_conf_0_16.gjf\\0,1\C,0,0.,0.,0.\C,0,1.4987,0.,0.\H
 ,0,1.81873,0.,1.05336\H,0,-0.47432,-0.93911,0.40037\O,0,-0.62897,0.920
 95,-0.35999\H,0,1.95214,0.85137,-0.53967\H,0,1.84331,-0.95876,-0.40185
 \\Version=ES64L-G16RevA.03\State=1-A\HF=-153.7822321\RMSD=6.816e-09\Di
 pole=0.670172,-0.6725502,0.2898347\Quadrupole=-0.7101652,0.0435436,0.6
 666216,1.1771786,-0.4177408,0.2242435\PG=C01 [X(C2H4O1)]\\@


 IT IS UNWORTHY OF EXCELLENT MEN TO LOSE HOURS LIKE SLAVES IN THE LABOR
 OF CALCULATION WHICH COULD BE SAFELY RELEGATED TO ANYONE ELSE
 IF A MACHINE WERE USED.
    -- G.W. VON LEIBNIZ
 Job cpu time:       0 days  0 hours  0 minutes 12.3 seconds.
 Elapsed time:       0 days  0 hours  0 minutes  6.2 seconds.
 File lengths (MBytes):  RWF=      6 Int=      0 D2E=      0 Chk=      1 Scr=      1
 Normal termination of Gaussian 16 at Fri Sep 22 16:30:22 2023.
