 Entering Gaussian System, Link 0=g16
 Initial command:
 /share/apps/gaussian/g16/l1.exe "/tmp/55568.mgr/Gau-355370.inp" -scrdir="/tmp/55568.mgr/"
 Entering Link 1 = /share/apps/gaussian/g16/l1.exe PID=    355371.
  
 Copyright (c) 1988,1990,1992,1993,1995,1998,2003,2009,2016,
            Gaussian, Inc.  All Rights Reserved.
  
 This is part of the Gaussian(R) 16 program.  It is based on
 the Gaussian(R) 09 system (copyright 2009, Gaussian, Inc.),
 the Gaussian(R) 03 system (copyright 2003, Gaussian, Inc.),
 the Gaussian(R) 98 system (copyright 1998, Gaussian, Inc.),
 the Gaussian(R) 94 system (copyright 1995, Gaussian, Inc.),
 the Gaussian 92(TM) system (copyright 1992, Gaussian, Inc.),
 the Gaussian 90(TM) system (copyright 1990, Gaussian, Inc.),
 the Gaussian 88(TM) system (copyright 1988, Gaussian, Inc.),
 the Gaussian 86(TM) system (copyright 1986, Carnegie Mellon
 University), and the Gaussian 82(TM) system (copyright 1983,
 Carnegie Mellon University). Gaussian is a federally registered
 trademark of Gaussian, Inc.
  
 This software contains proprietary and confidential information,
 including trade secrets, belonging to Gaussian, Inc.
  
 This software is provided under written license and may be
 used, copied, transmitted, or stored only in accord with that
 written license.
  
 The following legend is applicable only to US Government
 contracts under FAR:
  
                    RESTRICTED RIGHTS LEGEND
  
 Use, reproduction and disclosure by the US Government is
 subject to restrictions as set forth in subparagraphs (a)
 and (c) of the Commercial Computer Software - Restricted
 Rights clause in FAR 52.227-19.
  
 Gaussian, Inc.
 340 Quinnipiac St., Bldg. 40, Wallingford CT 06492
  
  
 ---------------------------------------------------------------
 Warning -- This program may not be used in any manner that
 competes with the business of Gaussian, Inc. or will provide
 assistance to any competitor of Gaussian, Inc.  The licensee
 of this program is prohibited from giving any competitor of
 Gaussian, Inc. access to this program.  By using this program,
 the user acknowledges that Gaussian, Inc. is engaged in the
 business of creating and licensing software in the field of
 computational chemistry and represents and warrants to the
 licensee that it is not a competitor of Gaussian, Inc. and that
 it will not use this program in any manner prohibited above.
 ---------------------------------------------------------------
  

 Cite this work as:
 Gaussian 16, Revision A.03,
 M. J. Frisch, G. W. Trucks, H. B. Schlegel, G. E. Scuseria, 
 M. A. Robb, J. R. Cheeseman, G. Scalmani, V. Barone, 
 G. A. Petersson, H. Nakatsuji, X. Li, M. Caricato, A. V. Marenich, 
 J. Bloino, B. G. Janesko, R. Gomperts, B. Mennucci, H. P. Hratchian, 
 J. V. Ortiz, A. F. Izmaylov, J. L. Sonnenberg, D. Williams-Young, 
 F. Ding, F. Lipparini, F. Egidi, J. Goings, B. Peng, A. Petrone, 
 T. Henderson, D. Ranasinghe, V. G. Zakrzewski, J. Gao, N. Rega, 
 G. Zheng, W. Liang, M. Hada, M. Ehara, K. Toyota, R. Fukuda, 
 J. Hasegawa, M. Ishida, T. Nakajima, Y. Honda, O. Kitao, H. Nakai, 
 T. Vreven, K. Throssell, J. A. Montgomery, Jr., J. E. Peralta, 
 F. Ogliaro, M. J. Bearpark, J. J. Heyd, E. N. Brothers, K. N. Kudin, 
 V. N. Staroverov, T. A. Keith, R. Kobayashi, J. Normand, 
 K. Raghavachari, A. P. Rendell, J. C. Burant, S. S. Iyengar, 
 J. Tomasi, M. Cossi, J. M. Millam, M. Klene, C. Adamo, R. Cammi, 
 J. W. Ochterski, R. L. Martin, K. Morokuma, O. Farkas, 
 J. B. Foresman, and D. J. Fox, Gaussian, Inc., Wallingford CT, 2016.
 
 ******************************************
 Gaussian 16:  ES64L-G16RevA.03 25-Dec-2016
                22-Sep-2023 
 ******************************************
 %nprocshared=2
 Will use up to    2 processors via shared memory.
 %mem=2GB
 ----------------
 # 6-31g(d) wb97x
 ----------------
 1/38=1,172=1/1;
 2/12=2,17=6,18=5,40=1/2;
 3/5=1,6=6,7=1,11=2,25=1,30=1,74=-57/1,2,3;
 4//1;
 5/5=2,38=5/2;
 6/7=2,8=2,9=2,10=2,28=1/1;
 99/5=1,9=1/99;
 -----------------------
 tmpdir/M2_conf_0_71.gjf
 -----------------------
 Symbolic Z-matrix:
 Charge =  0 Multiplicity = 1
 O                     0.        0.        0. 
 C                     1.4324    0.        0. 
 C                     1.91781   0.        1.44653 
 H                    -0.43657  -0.22987  -0.84373 
 H                     1.86616   0.84062  -0.57753 
 H                     1.77007  -0.94577  -0.46435 
 H                     1.60149  -0.88913   2.02135 
 H                     1.55337   0.90655   1.94265 
 H                     3.01302   0.06269   1.43238 
 
                          Input orientation:                          
 ---------------------------------------------------------------------
 Center     Atomic      Atomic             Coordinates (Angstroms)
 Number     Number       Type             X           Y           Z
 ---------------------------------------------------------------------
      1          8           0        0.000000    0.000000    0.000000
      2          6           0        1.432400    0.000000    0.000000
      3          6           0        1.917810    0.000000    1.446530
      4          1           0       -0.436570   -0.229870   -0.843730
      5          1           0        1.866160    0.840620   -0.577530
      6          1           0        1.770070   -0.945770   -0.464350
      7          1           0        1.601490   -0.889130    2.021350
      8          1           0        1.553370    0.906550    1.942650
      9          1           0        3.013020    0.062690    1.432380
 ---------------------------------------------------------------------
                    Distance matrix (angstroms):
                    1          2          3          4          5
     1  O    0.000000
     2  C    1.432400   0.000000
     3  C    2.402175   1.525802   0.000000
     4  H    0.977402   2.063436   3.292603   0.000000
     5  H    2.126673   1.108301   2.192288   2.553307   0.000000
     6  H    2.059915   1.106401   2.137234   2.350681   1.792549
     7  H    2.727852   2.214723   1.105002   3.577289   3.133092
     8  H    2.647391   2.147174   1.095803   3.607662   2.540372
     9  H    3.336755   2.134011   1.097094   4.143180   2.441352
                    6          7          8          9
     6  H    0.000000
     7  H    2.492054   0.000000
     8  H    3.044946   1.798048   0.000000
     9  H    2.481834   1.801462   1.761549   0.000000
 Stoichiometry    C2H6O
 Framework group  C1[X(C2H6O)]
 Deg. of freedom    21
 Full point group                 C1      NOp   1
 Largest Abelian subgroup         C1      NOp   1
 Largest concise Abelian subgroup C1      NOp   1
                         Standard orientation:                         
 ---------------------------------------------------------------------
 Center     Atomic      Atomic             Coordinates (Angstroms)
 Number     Number       Type             X           Y           Z
 ---------------------------------------------------------------------
      1          8           0        1.166490   -0.377491   -0.036645
      2          6           0        0.076131    0.550891   -0.005107
      3          6           0       -1.231030   -0.235956    0.011406
      4          1           0        2.050184   -0.020565    0.180157
      5          1           0        0.104024    1.281203   -0.838292
      6          1           0        0.138416    1.112724    0.945991
      7          1           0       -1.345623   -0.888632    0.895664
      8          1           0       -1.292771   -0.839770   -0.900943
      9          1           0       -2.056759    0.485360   -0.027211
 ---------------------------------------------------------------------
 Rotational constants (GHZ):          34.9862587           9.1423557           8.0031397
 Standard basis: 6-31G(d) (6D, 7F)
 There are    57 symmetry adapted cartesian basis functions of A   symmetry.
 There are    57 symmetry adapted basis functions of A   symmetry.
    57 basis functions,   108 primitive gaussians,    57 cartesian basis functions
    13 alpha electrons       13 beta electrons
       nuclear repulsion energy        81.0572754572 Hartrees.
 NAtoms=    9 NActive=    9 NUniq=    9 SFac= 1.00D+00 NAtFMM=   60 NAOKFM=F Big=F
 Integral buffers will be    131072 words long.
 Raffenetti 2 integral format.
 Two-electron integral symmetry is turned on.
 One-electron integrals computed using PRISM.
 NBasis=    57 RedAO= T EigKep=  6.06D-03  NBF=    57
 NBsUse=    57 1.00D-06 EigRej= -1.00D+00 NBFU=    57
 ExpMin= 1.61D-01 ExpMax= 5.48D+03 ExpMxC= 8.25D+02 IAcc=3 IRadAn=         5 AccDes= 0.00D+00
 Harris functional with IExCor= 4538 and IRadAn=       5 diagonalized for initial guess.
 HarFok:  IExCor= 4538 AccDes= 0.00D+00 IRadAn=         5 IDoV= 1 UseB2=F ITyADJ=14
 ICtDFT=  3500011 ScaDFX=  1.000000  1.000000  1.000000  1.000000
 FoFCou: FMM=F IPFlag=           0 FMFlag=      100000 FMFlg1=           0
         NFxFlg=           0 DoJE=T BraDBF=F KetDBF=T FulRan=T
         wScrn=  0.000000 ICntrl=       500 IOpCl=  0 I1Cent=   200000004 NGrid=           0
         NMat0=    1 NMatS0=      1 NMatT0=    0 NMatD0=    1 NMtDS0=    0 NMtDT0=    0
 Petite list used in FoFCou.
 Keep R1 ints in memory in canonical form, NReq=4494208.
 Requested convergence on RMS density matrix=1.00D-08 within 128 cycles.
 Requested convergence on MAX density matrix=1.00D-06.
 Requested convergence on             energy=1.00D-06.
 No special actions if energy rises.
 Integral accuracy reduced to 1.0D-05 until final iterations.
 Initial convergence to 1.0D-05 achieved.  Increase integral accuracy.
 SCF Done:  E(RwB97X) =  -154.985571619     A.U. after   13 cycles
            NFock= 13  Conv=0.38D-08     -V/T= 2.0099

 **********************************************************************

            Population analysis using the SCF density.

 **********************************************************************

 Orbital symmetries:
       Occupied  (A) (A) (A) (A) (A) (A) (A) (A) (A) (A) (A) (A)
                 (A)
       Virtual   (A) (A) (A) (A) (A) (A) (A) (A) (A) (A) (A) (A)
                 (A) (A) (A) (A) (A) (A) (A) (A) (A) (A) (A) (A)
                 (A) (A) (A) (A) (A) (A) (A) (A) (A) (A) (A) (A)
                 (A) (A) (A) (A) (A) (A) (A) (A)
 The electronic state is 1-A.
 Alpha  occ. eigenvalues --  -19.20005 -10.31455 -10.25690  -1.12306  -0.87190
 Alpha  occ. eigenvalues --   -0.72842  -0.61943  -0.57010  -0.49850  -0.48201
 Alpha  occ. eigenvalues --   -0.46642  -0.41388  -0.36286
 Alpha virt. eigenvalues --    0.17741   0.21467   0.24974   0.26179   0.27408
 Alpha virt. eigenvalues --    0.29984   0.31680   0.33467   0.63166   0.66511
 Alpha virt. eigenvalues --    0.67142   0.68965   0.77459   0.80678   0.92304
 Alpha virt. eigenvalues --    0.96806   0.99312   1.01323   1.02677   1.05885
 Alpha virt. eigenvalues --    1.10443   1.12949   1.14622   1.27539   1.47671
 Alpha virt. eigenvalues --    1.54995   1.60776   1.74393   1.88451   1.90487
 Alpha virt. eigenvalues --    2.01246   2.07252   2.13947   2.25955   2.33226
 Alpha virt. eigenvalues --    2.38269   2.46466   2.52322   2.63113   2.74668
 Alpha virt. eigenvalues --    2.93923   3.84424   4.29822   4.52546
          Condensed to atoms (all electrons):
               1          2          3          4          5          6
     1  O    8.282960   0.245435  -0.054832   0.243258  -0.037094  -0.040202
     2  C    0.245435   4.766442   0.369791  -0.017715   0.377936   0.382262
     3  C   -0.054832   0.369791   5.113344   0.005324  -0.043291  -0.042481
     4  H    0.243258  -0.017715   0.005324   0.372823  -0.000895  -0.004893
     5  H   -0.037094   0.377936  -0.043291  -0.000895   0.618993  -0.049805
     6  H   -0.040202   0.382262  -0.042481  -0.004893  -0.049805   0.629249
     7  H    0.002250  -0.025586   0.381039  -0.000034   0.004265  -0.006525
     8  H    0.001592  -0.033280   0.380167  -0.000138  -0.005237   0.005557
     9  H    0.002951  -0.030705   0.366971  -0.000208   0.000636  -0.000698
               7          8          9
     1  O    0.002250   0.001592   0.002951
     2  C   -0.025586  -0.033280  -0.030705
     3  C    0.381039   0.380167   0.366971
     4  H   -0.000034  -0.000138  -0.000208
     5  H    0.004265  -0.005237   0.000636
     6  H   -0.006525   0.005557  -0.000698
     7  H    0.523878  -0.026008  -0.023557
     8  H   -0.026008   0.533214  -0.026677
     9  H   -0.023557  -0.026677   0.559955
 Mulliken charges:
               1
     1  O   -0.646318
     2  C   -0.034578
     3  C   -0.476031
     4  H    0.402479
     5  H    0.134492
     6  H    0.127537
     7  H    0.170278
     8  H    0.170809
     9  H    0.151331
 Sum of Mulliken charges =  -0.00000
 Mulliken charges with hydrogens summed into heavy atoms:
               1
     1  O   -0.243839
     2  C    0.227451
     3  C    0.016388
 Electronic spatial extent (au):  <R**2>=            195.9508
 Charge=             -0.0000 electrons
 Dipole moment (field-independent basis, Debye):
    X=              0.2816    Y=              1.4483    Z=              0.4062  Tot=              1.5304
 Quadrupole moment (field-independent basis, Debye-Ang):
   XX=            -16.2340   YY=            -20.4146   ZZ=            -19.7964
   XY=              1.5482   XZ=              0.9280   YZ=             -0.1890
 Traceless Quadrupole moment (field-independent basis, Debye-Ang):
   XX=              2.5810   YY=             -1.5996   ZZ=             -0.9814
   XY=              1.5482   XZ=              0.9280   YZ=             -0.1890
 Octapole moment (field-independent basis, Debye-Ang**2):
  XXX=             17.7683  YYY=             -0.7065  ZZZ=              0.1990  XYY=              0.7319
  XXY=              1.6041  XXZ=              1.9139  XZZ=              1.4123  YZZ=             -0.5038
  YYZ=             -0.1052  XYZ=              0.0636
 Hexadecapole moment (field-independent basis, Debye-Ang**3):
 XXXX=           -129.3172 YYYY=            -56.6695 ZZZZ=            -32.4256 XXXY=             -1.8883
 XXXZ=              4.0021 YYYX=             -1.0356 YYYZ=             -0.5584 ZZZX=              0.4795
 ZZZY=             -0.0505 XXYY=            -35.8672 XXZZ=            -32.2381 YYZZ=            -13.6131
 XXYZ=             -0.4005 YYXZ=             -0.0282 ZZXY=              0.8581
 N-N= 8.105727545719D+01 E-N=-5.238817151921D+02  KE= 1.534659602225D+02
 1\1\GINC-NODE67\SP\RwB97X\6-31G(d)\C2H6O1\YANZ\22-Sep-2023\0\\# 6-31g(
 d) wb97x\\tmpdir/M2_conf_0_71.gjf\\0,1\O,0,0.,0.,0.\C,0,1.4324,0.,0.\C
 ,0,1.91781,0.,1.44653\H,0,-0.43657,-0.22987,-0.84373\H,0,1.86616,0.840
 62,-0.57753\H,0,1.77007,-0.94577,-0.46435\H,0,1.60149,-0.88913,2.02135
 \H,0,1.55337,0.90655,1.94265\H,0,3.01302,0.06269,1.43238\\Version=ES64
 L-G16RevA.03\State=1-A\HF=-154.9855716\RMSD=3.750e-09\Dipole=0.2884902
 ,-0.1555473,-0.5050693\Quadrupole=-0.5509199,-0.699344,1.2502639,0.627
 2446,1.7073112,0.3858702\PG=C01 [X(C2H6O1)]\\@


 QUANTUM MECHANICS IS BOHRING -- M.S. GORDON
 Job cpu time:       0 days  0 hours  0 minutes 15.9 seconds.
 Elapsed time:       0 days  0 hours  0 minutes  8.1 seconds.
 File lengths (MBytes):  RWF=      6 Int=      0 D2E=      0 Chk=      1 Scr=      1
 Normal termination of Gaussian 16 at Fri Sep 22 16:30:53 2023.
