 Entering Gaussian System, Link 0=g16
 Initial command:
 /share/apps/gaussian/g16/l1.exe "/tmp/55568.mgr/Gau-355212.inp" -scrdir="/tmp/55568.mgr/"
 Entering Link 1 = /share/apps/gaussian/g16/l1.exe PID=    355213.
  
 Copyright (c) 1988,1990,1992,1993,1995,1998,2003,2009,2016,
            Gaussian, Inc.  All Rights Reserved.
  
 This is part of the Gaussian(R) 16 program.  It is based on
 the Gaussian(R) 09 system (copyright 2009, Gaussian, Inc.),
 the Gaussian(R) 03 system (copyright 2003, Gaussian, Inc.),
 the Gaussian(R) 98 system (copyright 1998, Gaussian, Inc.),
 the Gaussian(R) 94 system (copyright 1995, Gaussian, Inc.),
 the Gaussian 92(TM) system (copyright 1992, Gaussian, Inc.),
 the Gaussian 90(TM) system (copyright 1990, Gaussian, Inc.),
 the Gaussian 88(TM) system (copyright 1988, Gaussian, Inc.),
 the Gaussian 86(TM) system (copyright 1986, Carnegie Mellon
 University), and the Gaussian 82(TM) system (copyright 1983,
 Carnegie Mellon University). Gaussian is a federally registered
 trademark of Gaussian, Inc.
  
 This software contains proprietary and confidential information,
 including trade secrets, belonging to Gaussian, Inc.
  
 This software is provided under written license and may be
 used, copied, transmitted, or stored only in accord with that
 written license.
  
 The following legend is applicable only to US Government
 contracts under FAR:
  
                    RESTRICTED RIGHTS LEGEND
  
 Use, reproduction and disclosure by the US Government is
 subject to restrictions as set forth in subparagraphs (a)
 and (c) of the Commercial Computer Software - Restricted
 Rights clause in FAR 52.227-19.
  
 Gaussian, Inc.
 340 Quinnipiac St., Bldg. 40, Wallingford CT 06492
  
  
 ---------------------------------------------------------------
 Warning -- This program may not be used in any manner that
 competes with the business of Gaussian, Inc. or will provide
 assistance to any competitor of Gaussian, Inc.  The licensee
 of this program is prohibited from giving any competitor of
 Gaussian, Inc. access to this program.  By using this program,
 the user acknowledges that Gaussian, Inc. is engaged in the
 business of creating and licensing software in the field of
 computational chemistry and represents and warrants to the
 licensee that it is not a competitor of Gaussian, Inc. and that
 it will not use this program in any manner prohibited above.
 ---------------------------------------------------------------
  

 Cite this work as:
 Gaussian 16, Revision A.03,
 M. J. Frisch, G. W. Trucks, H. B. Schlegel, G. E. Scuseria, 
 M. A. Robb, J. R. Cheeseman, G. Scalmani, V. Barone, 
 G. A. Petersson, H. Nakatsuji, X. Li, M. Caricato, A. V. Marenich, 
 J. Bloino, B. G. Janesko, R. Gomperts, B. Mennucci, H. P. Hratchian, 
 J. V. Ortiz, A. F. Izmaylov, J. L. Sonnenberg, D. Williams-Young, 
 F. Ding, F. Lipparini, F. Egidi, J. Goings, B. Peng, A. Petrone, 
 T. Henderson, D. Ranasinghe, V. G. Zakrzewski, J. Gao, N. Rega, 
 G. Zheng, W. Liang, M. Hada, M. Ehara, K. Toyota, R. Fukuda, 
 J. Hasegawa, M. Ishida, T. Nakajima, Y. Honda, O. Kitao, H. Nakai, 
 T. Vreven, K. Throssell, J. A. Montgomery, Jr., J. E. Peralta, 
 F. Ogliaro, M. J. Bearpark, J. J. Heyd, E. N. Brothers, K. N. Kudin, 
 V. N. Staroverov, T. A. Keith, R. Kobayashi, J. Normand, 
 K. Raghavachari, A. P. Rendell, J. C. Burant, S. S. Iyengar, 
 J. Tomasi, M. Cossi, J. M. Millam, M. Klene, C. Adamo, R. Cammi, 
 J. W. Ochterski, R. L. Martin, K. Morokuma, O. Farkas, 
 J. B. Foresman, and D. J. Fox, Gaussian, Inc., Wallingford CT, 2016.
 
 ******************************************
 Gaussian 16:  ES64L-G16RevA.03 25-Dec-2016
                22-Sep-2023 
 ******************************************
 %nprocshared=2
 Will use up to    2 processors via shared memory.
 %mem=2GB
 ----------------
 # 6-31g(d) wb97x
 ----------------
 1/38=1,172=1/1;
 2/12=2,17=6,18=5,40=1/2;
 3/5=1,6=6,7=1,11=2,25=1,30=1,74=-57/1,2,3;
 4//1;
 5/5=2,38=5/2;
 6/7=2,8=2,9=2,10=2,28=1/1;
 99/5=1,9=1/99;
 -----------------------
 tmpdir/M2_conf_0_50.gjf
 -----------------------
 Symbolic Z-matrix:
 Charge =  0 Multiplicity = 1
 C                     0.        0.        0. 
 N                     1.4707    0.        0. 
 H                     1.95227   0.        0.89326 
 H                    -0.52093   0.42505  -0.88044 
 H                    -0.28788   0.59289   0.90776 
 H                    -0.35486  -1.02837   0.16288 
 H                     2.11649  -0.14586  -0.66617 
 
                          Input orientation:                          
 ---------------------------------------------------------------------
 Center     Atomic      Atomic             Coordinates (Angstroms)
 Number     Number       Type             X           Y           Z
 ---------------------------------------------------------------------
      1          6           0        0.000000    0.000000    0.000000
      2          7           0        1.470700    0.000000    0.000000
      3          1           0        1.952270    0.000000    0.893260
      4          1           0       -0.520930    0.425050   -0.880440
      5          1           0       -0.287880    0.592890    0.907760
      6          1           0       -0.354860   -1.028370    0.162880
      7          1           0        2.116490   -0.145860   -0.666170
 ---------------------------------------------------------------------
                    Distance matrix (angstroms):
                    1          2          3          4          5
     1  C    0.000000
     2  N    1.470700   0.000000
     3  H    2.146921   1.014802   0.000000
     4  H    1.107795   2.218655   3.073011   0.000000
     5  H    1.121794   2.065950   2.317326   1.811116   0.000000
     6  H    1.100000   2.101605   2.629420   1.796810   1.785446
     7  H    2.223643   0.939203   1.574822   2.706997   2.967154
                    6          7
     6  H    0.000000
     7  H    2.752039   0.000000
 Stoichiometry    CH5N
 Framework group  C1[X(CH5N)]
 Deg. of freedom    15
 Full point group                 C1      NOp   1
 Largest Abelian subgroup         C1      NOp   1
 Largest concise Abelian subgroup C1      NOp   1
                         Standard orientation:                         
 ---------------------------------------------------------------------
 Center     Atomic      Atomic             Coordinates (Angstroms)
 Number     Number       Type             X           Y           Z
 ---------------------------------------------------------------------
      1          6           0       -0.733633   -0.012786    0.003078
      2          7           0        0.736689   -0.032098   -0.024142
      3          1           0        1.231142    0.851923    0.037867
      4          1           0       -1.274647   -0.849659   -0.480819
      5          1           0       -1.018539    0.943013   -0.510438
      6          1           0       -1.068130    0.072318    1.047525
      7          1           0        1.375151   -0.716191    0.056389
 ---------------------------------------------------------------------
 Rotational constants (GHZ):         112.2267258          22.0492399          20.8850458
 Standard basis: 6-31G(d) (6D, 7F)
 There are    40 symmetry adapted cartesian basis functions of A   symmetry.
 There are    40 symmetry adapted basis functions of A   symmetry.
    40 basis functions,    76 primitive gaussians,    40 cartesian basis functions
     9 alpha electrons        9 beta electrons
       nuclear repulsion energy        41.8082069133 Hartrees.
 NAtoms=    7 NActive=    7 NUniq=    7 SFac= 1.00D+00 NAtFMM=   60 NAOKFM=F Big=F
 Integral buffers will be    131072 words long.
 Raffenetti 2 integral format.
 Two-electron integral symmetry is turned on.
 One-electron integrals computed using PRISM.
 NBasis=    40 RedAO= T EigKep=  9.98D-03  NBF=    40
 NBsUse=    40 1.00D-06 EigRej= -1.00D+00 NBFU=    40
 ExpMin= 1.61D-01 ExpMax= 4.17D+03 ExpMxC= 6.27D+02 IAcc=3 IRadAn=         5 AccDes= 0.00D+00
 Harris functional with IExCor= 4538 and IRadAn=       5 diagonalized for initial guess.
 HarFok:  IExCor= 4538 AccDes= 0.00D+00 IRadAn=         5 IDoV= 1 UseB2=F ITyADJ=14
 ICtDFT=  3500011 ScaDFX=  1.000000  1.000000  1.000000  1.000000
 FoFCou: FMM=F IPFlag=           0 FMFlag=      100000 FMFlg1=           0
         NFxFlg=           0 DoJE=T BraDBF=F KetDBF=T FulRan=T
         wScrn=  0.000000 ICntrl=       500 IOpCl=  0 I1Cent=   200000004 NGrid=           0
         NMat0=    1 NMatS0=      1 NMatT0=    0 NMatD0=    1 NMtDS0=    0 NMtDT0=    0
 Petite list used in FoFCou.
 Keep R1 ints in memory in canonical form, NReq=2399831.
 Requested convergence on RMS density matrix=1.00D-08 within 128 cycles.
 Requested convergence on MAX density matrix=1.00D-06.
 Requested convergence on             energy=1.00D-06.
 No special actions if energy rises.
 Integral accuracy reduced to 1.0D-05 until final iterations.
 Initial convergence to 1.0D-05 achieved.  Increase integral accuracy.
 SCF Done:  E(RwB97X) =  -95.8010860910     A.U. after   13 cycles
            NFock= 13  Conv=0.45D-08     -V/T= 2.0100

 **********************************************************************

            Population analysis using the SCF density.

 **********************************************************************

 Orbital symmetries:
       Occupied  (A) (A) (A) (A) (A) (A) (A) (A) (A)
       Virtual   (A) (A) (A) (A) (A) (A) (A) (A) (A) (A) (A) (A)
                 (A) (A) (A) (A) (A) (A) (A) (A) (A) (A) (A) (A)
                 (A) (A) (A) (A) (A) (A) (A)
 The electronic state is 1-A.
 Alpha  occ. eigenvalues --  -14.36302 -10.28947  -0.97978  -0.78569  -0.59299
 Alpha  occ. eigenvalues --   -0.53726  -0.51380  -0.46930  -0.29968
 Alpha virt. eigenvalues --    0.19693   0.23230   0.25161   0.28120   0.31314
 Alpha virt. eigenvalues --    0.34633   0.64725   0.66857   0.69938   0.87649
 Alpha virt. eigenvalues --    0.90572   0.93362   0.98887   1.00635   1.06452
 Alpha virt. eigenvalues --    1.07308   1.10359   1.16205   1.43449   1.58833
 Alpha virt. eigenvalues --    1.80893   1.92991   2.08569   2.16272   2.29648
 Alpha virt. eigenvalues --    2.39327   2.44252   2.68875   2.81357   3.89639
 Alpha virt. eigenvalues --    4.37727
          Condensed to atoms (all electrons):
               1          2          3          4          5          6
     1  C    4.872954   0.294410  -0.028744   0.385383   0.391335   0.395450
     2  N    0.294410   6.942935   0.346363  -0.027526  -0.041482  -0.063218
     3  H   -0.028744   0.346363   0.411791   0.002699  -0.005723   0.000657
     4  H    0.385383  -0.027526   0.002699   0.541073  -0.021522  -0.040403
     5  H    0.391335  -0.041482  -0.005723  -0.021522   0.561644  -0.040019
     6  H    0.395450  -0.063218   0.000657  -0.040403  -0.040019   0.601637
     7  H   -0.021858   0.354783  -0.036920  -0.002038   0.003216   0.000510
               7
     1  C   -0.021858
     2  N    0.354783
     3  H   -0.036920
     4  H   -0.002038
     5  H    0.003216
     6  H    0.000510
     7  H    0.377261
 Mulliken charges:
               1
     1  C   -0.288931
     2  N   -0.806265
     3  H    0.309879
     4  H    0.162334
     5  H    0.152550
     6  H    0.145385
     7  H    0.325047
 Sum of Mulliken charges =   0.00000
 Mulliken charges with hydrogens summed into heavy atoms:
               1
     1  C    0.171339
     2  N   -0.171339
 Electronic spatial extent (au):  <R**2>=             96.2582
 Charge=              0.0000 electrons
 Dipole moment (field-independent basis, Debye):
    X=              0.2315    Y=              0.1612    Z=              0.2256  Tot=              0.3612
 Quadrupole moment (field-independent basis, Debye-Ang):
   XX=            -11.7927   YY=            -12.3320   ZZ=            -15.5299
   XY=              0.1865   XZ=              0.6177   YZ=             -0.0098
 Traceless Quadrupole moment (field-independent basis, Debye-Ang):
   XX=              1.4255   YY=              0.8862   ZZ=             -2.3117
   XY=              0.1865   XZ=              0.6177   YZ=             -0.0098
 Octapole moment (field-independent basis, Debye-Ang**2):
  XXX=              6.6200  YYY=              0.3936  ZZZ=              0.6937  XYY=              2.4466
  XXY=             -0.5944  XXZ=              0.1798  XZZ=             -0.6057  YZZ=              0.0817
  YYZ=             -0.4041  XYZ=             -0.1585
 Hexadecapole moment (field-independent basis, Debye-Ang**3):
 XXXX=            -69.8817 YYYY=            -22.3101 ZZZZ=            -22.1774 XXXY=             -0.0145
 XXXZ=              1.4173 YYYX=              0.3648 YYYZ=             -0.1195 ZZZX=              0.0735
 ZZZY=              0.0549 XXYY=            -13.3001 XXZZ=            -17.4276 YYZZ=             -7.6481
 XXYZ=              0.2191 YYXZ=              0.9352 ZZXY=             -0.0136
 N-N= 4.180820691332D+01 E-N=-3.060513974708D+02  KE= 9.485297241275D+01
 1\1\GINC-NODE67\SP\RwB97X\6-31G(d)\C1H5N1\YANZ\22-Sep-2023\0\\# 6-31g(
 d) wb97x\\tmpdir/M2_conf_0_50.gjf\\0,1\C,0,0.,0.,0.\N,0,1.4707,0.,0.\H
 ,0,1.95227,0.,0.89326\H,0,-0.52093,0.42505,-0.88044\H,0,-0.28788,0.592
 89,0.90776\H,0,-0.35486,-1.02837,0.16288\H,0,2.11649,-0.14586,-0.66617
 \\Version=ES64L-G16RevA.03\State=1-A\HF=-95.8010861\RMSD=4.480e-09\Dip
 ole=0.0885734,-0.0849996,0.0715975\Quadrupole=1.038152,-1.6860636,0.64
 79116,-0.4973049,0.1839799,0.1857207\PG=C01 [X(C1H5N1)]\\@


 NO HUMAN INVESTIGATION CAN BECOME REAL SCIENCE
 WITHOUT GOING THROUGH MATHEMATICAL PEOPLE.
 -- LEONARDO DA VINCI, IN "PENSIERI" CA. 1492
 Job cpu time:       0 days  0 hours  0 minutes  9.9 seconds.
 Elapsed time:       0 days  0 hours  0 minutes  5.0 seconds.
 File lengths (MBytes):  RWF=      6 Int=      0 D2E=      0 Chk=      1 Scr=      1
 Normal termination of Gaussian 16 at Fri Sep 22 16:30:44 2023.
