 Entering Gaussian System, Link 0=g16
 Initial command:
 /share/apps/gaussian/g16/l1.exe "/tmp/55568.mgr/Gau-359295.inp" -scrdir="/tmp/55568.mgr/"
 Entering Link 1 = /share/apps/gaussian/g16/l1.exe PID=    359296.
  
 Copyright (c) 1988,1990,1992,1993,1995,1998,2003,2009,2016,
            Gaussian, Inc.  All Rights Reserved.
  
 This is part of the Gaussian(R) 16 program.  It is based on
 the Gaussian(R) 09 system (copyright 2009, Gaussian, Inc.),
 the Gaussian(R) 03 system (copyright 2003, Gaussian, Inc.),
 the Gaussian(R) 98 system (copyright 1998, Gaussian, Inc.),
 the Gaussian(R) 94 system (copyright 1995, Gaussian, Inc.),
 the Gaussian 92(TM) system (copyright 1992, Gaussian, Inc.),
 the Gaussian 90(TM) system (copyright 1990, Gaussian, Inc.),
 the Gaussian 88(TM) system (copyright 1988, Gaussian, Inc.),
 the Gaussian 86(TM) system (copyright 1986, Carnegie Mellon
 University), and the Gaussian 82(TM) system (copyright 1983,
 Carnegie Mellon University). Gaussian is a federally registered
 trademark of Gaussian, Inc.
  
 This software contains proprietary and confidential information,
 including trade secrets, belonging to Gaussian, Inc.
  
 This software is provided under written license and may be
 used, copied, transmitted, or stored only in accord with that
 written license.
  
 The following legend is applicable only to US Government
 contracts under FAR:
  
                    RESTRICTED RIGHTS LEGEND
  
 Use, reproduction and disclosure by the US Government is
 subject to restrictions as set forth in subparagraphs (a)
 and (c) of the Commercial Computer Software - Restricted
 Rights clause in FAR 52.227-19.
  
 Gaussian, Inc.
 340 Quinnipiac St., Bldg. 40, Wallingford CT 06492
  
  
 ---------------------------------------------------------------
 Warning -- This program may not be used in any manner that
 competes with the business of Gaussian, Inc. or will provide
 assistance to any competitor of Gaussian, Inc.  The licensee
 of this program is prohibited from giving any competitor of
 Gaussian, Inc. access to this program.  By using this program,
 the user acknowledges that Gaussian, Inc. is engaged in the
 business of creating and licensing software in the field of
 computational chemistry and represents and warrants to the
 licensee that it is not a competitor of Gaussian, Inc. and that
 it will not use this program in any manner prohibited above.
 ---------------------------------------------------------------
  

 Cite this work as:
 Gaussian 16, Revision A.03,
 M. J. Frisch, G. W. Trucks, H. B. Schlegel, G. E. Scuseria, 
 M. A. Robb, J. R. Cheeseman, G. Scalmani, V. Barone, 
 G. A. Petersson, H. Nakatsuji, X. Li, M. Caricato, A. V. Marenich, 
 J. Bloino, B. G. Janesko, R. Gomperts, B. Mennucci, H. P. Hratchian, 
 J. V. Ortiz, A. F. Izmaylov, J. L. Sonnenberg, D. Williams-Young, 
 F. Ding, F. Lipparini, F. Egidi, J. Goings, B. Peng, A. Petrone, 
 T. Henderson, D. Ranasinghe, V. G. Zakrzewski, J. Gao, N. Rega, 
 G. Zheng, W. Liang, M. Hada, M. Ehara, K. Toyota, R. Fukuda, 
 J. Hasegawa, M. Ishida, T. Nakajima, Y. Honda, O. Kitao, H. Nakai, 
 T. Vreven, K. Throssell, J. A. Montgomery, Jr., J. E. Peralta, 
 F. Ogliaro, M. J. Bearpark, J. J. Heyd, E. N. Brothers, K. N. Kudin, 
 V. N. Staroverov, T. A. Keith, R. Kobayashi, J. Normand, 
 K. Raghavachari, A. P. Rendell, J. C. Burant, S. S. Iyengar, 
 J. Tomasi, M. Cossi, J. M. Millam, M. Klene, C. Adamo, R. Cammi, 
 J. W. Ochterski, R. L. Martin, K. Morokuma, O. Farkas, 
 J. B. Foresman, and D. J. Fox, Gaussian, Inc., Wallingford CT, 2016.
 
 ******************************************
 Gaussian 16:  ES64L-G16RevA.03 25-Dec-2016
                22-Sep-2023 
 ******************************************
 %nprocshared=2
 Will use up to    2 processors via shared memory.
 %mem=2GB
 ----------------
 # 6-31g(d) wb97x
 ----------------
 1/38=1,172=1/1;
 2/12=2,17=6,18=5,40=1/2;
 3/5=1,6=6,7=1,11=2,25=1,30=1,74=-57/1,2,3;
 4//1;
 5/5=2,38=5/2;
 6/7=2,8=2,9=2,10=2,28=1/1;
 99/5=1,9=1/99;
 ------------------------
 tmpdir/M2_conf_2_125.gjf
 ------------------------
 Symbolic Z-matrix:
 Charge =  0 Multiplicity = 1
 H                     0.        0.        0. 
 C                     1.0956    0.        0. 
 H                     1.43252   0.        1.04125 
 H                     1.50511   0.86661  -0.55103 
 H                     1.42779  -0.93651  -0.45717 
 
                          Input orientation:                          
 ---------------------------------------------------------------------
 Center     Atomic      Atomic             Coordinates (Angstroms)
 Number     Number       Type             X           Y           Z
 ---------------------------------------------------------------------
      1          1           0        0.000000    0.000000    0.000000
      2          6           0        1.095600    0.000000    0.000000
      3          1           0        1.432520    0.000000    1.041250
      4          1           0        1.505110    0.866610   -0.551030
      5          1           0        1.427790   -0.936510   -0.457170
 ---------------------------------------------------------------------
                    Distance matrix (angstroms):
                    1          2          3          4          5
     1  H    0.000000
     2  C    1.095600   0.000000
     3  H    1.770964   1.094402   0.000000
     4  H    1.822088   1.105597   1.814287   0.000000
     5  H    1.767665   1.093803   1.767013   1.807216   0.000000
 Stoichiometry    CH4
 Framework group  C1[X(CH4)]
 Deg. of freedom     9
 Full point group                 C1      NOp   1
 Largest Abelian subgroup         C1      NOp   1
 Largest concise Abelian subgroup C1      NOp   1
                         Standard orientation:                         
 ---------------------------------------------------------------------
 Center     Atomic      Atomic             Coordinates (Angstroms)
 Number     Number       Type             X           Y           Z
 ---------------------------------------------------------------------
      1          1           0       -0.497426   -0.847166   -0.481205
      2          6           0        0.007540   -0.001083   -0.002153
      3          1           0       -0.370964    0.919123   -0.457864
      4          1           0        1.106545   -0.071185   -0.100240
      5          1           0       -0.283397    0.005724    1.052226
 ---------------------------------------------------------------------
 Rotational constants (GHZ):         160.4112966         154.3497386         153.9176699
 Standard basis: 6-31G(d) (6D, 7F)
 There are    23 symmetry adapted cartesian basis functions of A   symmetry.
 There are    23 symmetry adapted basis functions of A   symmetry.
    23 basis functions,    44 primitive gaussians,    23 cartesian basis functions
     5 alpha electrons        5 beta electrons
       nuclear repulsion energy        13.3463366365 Hartrees.
 NAtoms=    5 NActive=    5 NUniq=    5 SFac= 1.00D+00 NAtFMM=   60 NAOKFM=F Big=F
 Integral buffers will be    131072 words long.
 Raffenetti 2 integral format.
 Two-electron integral symmetry is turned on.
 One-electron integrals computed using PRISM.
 NBasis=    23 RedAO= T EigKep=  1.82D-02  NBF=    23
 NBsUse=    23 1.00D-06 EigRej= -1.00D+00 NBFU=    23
 ExpMin= 1.61D-01 ExpMax= 3.05D+03 ExpMxC= 4.57D+02 IAcc=3 IRadAn=         5 AccDes= 0.00D+00
 Harris functional with IExCor= 4538 and IRadAn=       5 diagonalized for initial guess.
 HarFok:  IExCor= 4538 AccDes= 0.00D+00 IRadAn=         5 IDoV= 1 UseB2=F ITyADJ=14
 ICtDFT=  3500011 ScaDFX=  1.000000  1.000000  1.000000  1.000000
 FoFCou: FMM=F IPFlag=           0 FMFlag=      100000 FMFlg1=           0
         NFxFlg=           0 DoJE=T BraDBF=F KetDBF=T FulRan=T
         wScrn=  0.000000 ICntrl=       500 IOpCl=  0 I1Cent=   200000004 NGrid=           0
         NMat0=    1 NMatS0=      1 NMatT0=    0 NMatD0=    1 NMtDS0=    0 NMtDT0=    0
 Petite list used in FoFCou.
 Keep R1 ints in memory in canonical form, NReq=1800744.
 Requested convergence on RMS density matrix=1.00D-08 within 128 cycles.
 Requested convergence on MAX density matrix=1.00D-06.
 Requested convergence on             energy=1.00D-06.
 No special actions if energy rises.
 Integral accuracy reduced to 1.0D-05 until final iterations.
 Initial convergence to 1.0D-05 achieved.  Increase integral accuracy.
 SCF Done:  E(RwB97X) =  -40.4991237974     A.U. after   11 cycles
            NFock= 11  Conv=0.26D-08     -V/T= 2.0116

 **********************************************************************

            Population analysis using the SCF density.

 **********************************************************************

 Orbital symmetries:
       Occupied  (A) (A) (A) (A) (A)
       Virtual   (A) (A) (A) (A) (A) (A) (A) (A) (A) (A) (A) (A)
                 (A) (A) (A) (A) (A) (A)
 The electronic state is 1-A.
 Alpha  occ. eigenvalues --  -10.25065  -0.81657  -0.49862  -0.49219  -0.49162
 Alpha virt. eigenvalues --    0.21531   0.27371   0.27434   0.27472   0.63884
 Alpha virt. eigenvalues --    0.63937   0.64722   1.01306   1.01509   1.01578
 Alpha virt. eigenvalues --    1.06756   1.20747   1.75836   1.75906   2.33232
 Alpha virt. eigenvalues --    2.35820   2.36087   4.30464
          Condensed to atoms (all electrons):
               1          2          3          4          5
     1  H    0.521828   0.385158  -0.025831  -0.021570  -0.026061
     2  C    0.385158   5.125275   0.385160   0.385317   0.385021
     3  H   -0.025831   0.385160   0.522408  -0.022280  -0.025976
     4  H   -0.021570   0.385317  -0.022280   0.514814  -0.022914
     5  H   -0.026061   0.385021  -0.025976  -0.022914   0.523625
 Mulliken charges:
               1
     1  H    0.166475
     2  C   -0.665931
     3  H    0.166518
     4  H    0.166632
     5  H    0.166305
 Sum of Mulliken charges =   0.00000
 Mulliken charges with hydrogens summed into heavy atoms:
               1
     2  C    0.000000
 Electronic spatial extent (au):  <R**2>=             35.6271
 Charge=              0.0000 electrons
 Dipole moment (field-independent basis, Debye):
    X=             -0.0380    Y=              0.0058    Z=              0.0105  Tot=              0.0398
 Quadrupole moment (field-independent basis, Debye-Ang):
   XX=             -8.1372   YY=             -8.3172   ZZ=             -8.3321
   XY=             -0.0002   XZ=              0.0003   YZ=             -0.0003
 Traceless Quadrupole moment (field-independent basis, Debye-Ang):
   XX=              0.1250   YY=             -0.0550   ZZ=             -0.0699
   XY=             -0.0002   XZ=              0.0003   YZ=             -0.0003
 Octapole moment (field-independent basis, Debye-Ang**2):
  XXX=              0.8210  YYY=              0.1355  ZZZ=              0.7014  XYY=             -0.5259
  XXY=             -0.1253  XXZ=             -0.1601  XZZ=             -0.3979  YZZ=              0.0066
  YYZ=             -0.5130  XYZ=             -0.0298
 Hexadecapole moment (field-independent basis, Debye-Ang**3):
 XXXX=            -15.0134 YYYY=            -15.0655 ZZZZ=            -14.9359 XXXY=             -0.0429
 XXXZ=             -0.0838 YYYX=              0.0145 YYYZ=             -0.0723 ZZZX=             -0.2722
 ZZZY=              0.0137 XXYY=             -5.2010 XXZZ=             -5.3262 YYZZ=             -5.0936
 XXYZ=              0.0587 YYXZ=              0.3560 ZZXY=              0.0262
 N-N= 1.334633663648D+01 E-N=-1.196857382277D+02  KE= 4.003561600964D+01
 1\1\GINC-NODE67\SP\RwB97X\6-31G(d)\C1H4\YANZ\22-Sep-2023\0\\# 6-31g(d)
  wb97x\\tmpdir/M2_conf_2_125.gjf\\0,1\H,0,0.,0.,0.\C,0,1.0956,0.,0.\H,
 0,1.43252,0.,1.04125\H,0,1.50511,0.86661,-0.55103\H,0,1.42779,-0.93651
 ,-0.45717\\Version=ES64L-G16RevA.03\State=1-A\HF=-40.4991238\RMSD=2.58
 2e-09\Dipole=-0.0033247,-0.0137664,0.0067098\Quadrupole=-0.014775,0.02
 38107,-0.0090358,0.0480576,-0.0288666,-0.0541073\PG=C01 [X(C1H4)]\\@


            ARSENIC

 FOR SMELTER FUMES HAVE I BEEN NAMED,
    I AM AN EVIL POISONOUS SMOKE...
 BUT WHEN FROM POISON I AM FREED,
    THROUGH ART AND SLEIGHT OF HAND,
 THEN CAN I CURE BOTH MAN AND BEAST,
    FROM DIRE DISEASE OFTTIMES DIRECT THEM;
 BUT PREPARE ME CORRECTLY, AND TAKE GREAT CARE
    THAT YOU FAITHFULLY KEEP WATCHFUL GUARD OVER ME;
 FOR ELSE I AM POISON, AND POISON REMAIN,
    THAT PIERCES THE HEART OF MANY A ONE.

 ATTRIBUTED TO THE PROBABLY MYTHICAL 15TH
 CENTURY MONK, BASILIUS VALENTINUS
 Job cpu time:       0 days  0 hours  0 minutes  4.9 seconds.
 Elapsed time:       0 days  0 hours  0 minutes  2.5 seconds.
 File lengths (MBytes):  RWF=      6 Int=      0 D2E=      0 Chk=      1 Scr=      1
 Normal termination of Gaussian 16 at Fri Sep 22 16:33:18 2023.
