 Entering Gaussian System, Link 0=g16
 Initial command:
 /share/apps/gaussian/g16/l1.exe "/tmp/55568.mgr/Gau-356547.inp" -scrdir="/tmp/55568.mgr/"
 Entering Link 1 = /share/apps/gaussian/g16/l1.exe PID=    356548.
  
 Copyright (c) 1988,1990,1992,1993,1995,1998,2003,2009,2016,
            Gaussian, Inc.  All Rights Reserved.
  
 This is part of the Gaussian(R) 16 program.  It is based on
 the Gaussian(R) 09 system (copyright 2009, Gaussian, Inc.),
 the Gaussian(R) 03 system (copyright 2003, Gaussian, Inc.),
 the Gaussian(R) 98 system (copyright 1998, Gaussian, Inc.),
 the Gaussian(R) 94 system (copyright 1995, Gaussian, Inc.),
 the Gaussian 92(TM) system (copyright 1992, Gaussian, Inc.),
 the Gaussian 90(TM) system (copyright 1990, Gaussian, Inc.),
 the Gaussian 88(TM) system (copyright 1988, Gaussian, Inc.),
 the Gaussian 86(TM) system (copyright 1986, Carnegie Mellon
 University), and the Gaussian 82(TM) system (copyright 1983,
 Carnegie Mellon University). Gaussian is a federally registered
 trademark of Gaussian, Inc.
  
 This software contains proprietary and confidential information,
 including trade secrets, belonging to Gaussian, Inc.
  
 This software is provided under written license and may be
 used, copied, transmitted, or stored only in accord with that
 written license.
  
 The following legend is applicable only to US Government
 contracts under FAR:
  
                    RESTRICTED RIGHTS LEGEND
  
 Use, reproduction and disclosure by the US Government is
 subject to restrictions as set forth in subparagraphs (a)
 and (c) of the Commercial Computer Software - Restricted
 Rights clause in FAR 52.227-19.
  
 Gaussian, Inc.
 340 Quinnipiac St., Bldg. 40, Wallingford CT 06492
  
  
 ---------------------------------------------------------------
 Warning -- This program may not be used in any manner that
 competes with the business of Gaussian, Inc. or will provide
 assistance to any competitor of Gaussian, Inc.  The licensee
 of this program is prohibited from giving any competitor of
 Gaussian, Inc. access to this program.  By using this program,
 the user acknowledges that Gaussian, Inc. is engaged in the
 business of creating and licensing software in the field of
 computational chemistry and represents and warrants to the
 licensee that it is not a competitor of Gaussian, Inc. and that
 it will not use this program in any manner prohibited above.
 ---------------------------------------------------------------
  

 Cite this work as:
 Gaussian 16, Revision A.03,
 M. J. Frisch, G. W. Trucks, H. B. Schlegel, G. E. Scuseria, 
 M. A. Robb, J. R. Cheeseman, G. Scalmani, V. Barone, 
 G. A. Petersson, H. Nakatsuji, X. Li, M. Caricato, A. V. Marenich, 
 J. Bloino, B. G. Janesko, R. Gomperts, B. Mennucci, H. P. Hratchian, 
 J. V. Ortiz, A. F. Izmaylov, J. L. Sonnenberg, D. Williams-Young, 
 F. Ding, F. Lipparini, F. Egidi, J. Goings, B. Peng, A. Petrone, 
 T. Henderson, D. Ranasinghe, V. G. Zakrzewski, J. Gao, N. Rega, 
 G. Zheng, W. Liang, M. Hada, M. Ehara, K. Toyota, R. Fukuda, 
 J. Hasegawa, M. Ishida, T. Nakajima, Y. Honda, O. Kitao, H. Nakai, 
 T. Vreven, K. Throssell, J. A. Montgomery, Jr., J. E. Peralta, 
 F. Ogliaro, M. J. Bearpark, J. J. Heyd, E. N. Brothers, K. N. Kudin, 
 V. N. Staroverov, T. A. Keith, R. Kobayashi, J. Normand, 
 K. Raghavachari, A. P. Rendell, J. C. Burant, S. S. Iyengar, 
 J. Tomasi, M. Cossi, J. M. Millam, M. Klene, C. Adamo, R. Cammi, 
 J. W. Ochterski, R. L. Martin, K. Morokuma, O. Farkas, 
 J. B. Foresman, and D. J. Fox, Gaussian, Inc., Wallingford CT, 2016.
 
 ******************************************
 Gaussian 16:  ES64L-G16RevA.03 25-Dec-2016
                22-Sep-2023 
 ******************************************
 %nprocshared=2
 Will use up to    2 processors via shared memory.
 %mem=2GB
 ----------------
 # 6-31g(d) wb97x
 ----------------
 1/38=1,172=1/1;
 2/12=2,17=6,18=5,40=1/2;
 3/5=1,6=6,7=1,11=2,25=1,30=1,74=-57/1,2,3;
 4//1;
 5/5=2,38=5/2;
 6/7=2,8=2,9=2,10=2,28=1/1;
 99/5=1,9=1/99;
 -----------------------
 tmpdir/M2_conf_1_26.gjf
 -----------------------
 Symbolic Z-matrix:
 Charge =  1 Multiplicity = 1
 N                     0.        0.        0. 
 C                     1.5057    0.        0. 
 C                     2.04287   0.        1.43292 
 H                    -0.34794  -0.77799   0.65652 
 H                    -0.34481   0.90327   0.33395 
 H                    -0.35206  -0.12125  -0.95176 
 H                     1.82978   0.89409  -0.56326 
 H                     1.80096  -0.92607  -0.50617 
 H                     1.77698  -0.89607   2.11314 
 H                     3.16401   0.01039   1.39575 
 H                     1.73009   0.9292    1.93167 
 
                          Input orientation:                          
 ---------------------------------------------------------------------
 Center     Atomic      Atomic             Coordinates (Angstroms)
 Number     Number       Type             X           Y           Z
 ---------------------------------------------------------------------
      1          7           0        0.000000    0.000000    0.000000
      2          6           0        1.505700    0.000000    0.000000
      3          6           0        2.042870    0.000000    1.432920
      4          1           0       -0.347940   -0.777990    0.656520
      5          1           0       -0.344810    0.903270    0.333950
      6          1           0       -0.352060   -0.121250   -0.951760
      7          1           0        1.829780    0.894090   -0.563260
      8          1           0        1.800960   -0.926070   -0.506170
      9          1           0        1.776980   -0.896070    2.113140
     10          1           0        3.164010    0.010390    1.395750
     11          1           0        1.730090    0.929200    1.931670
 ---------------------------------------------------------------------
                    Distance matrix (angstroms):
                    1          2          3          4          5
     1  N    0.000000
     2  C    1.505700   0.000000
     3  C    2.495311   1.530298   0.000000
     4  H    1.075802   2.114774   2.631357   0.000000
     5  H    1.022895   2.086098   2.779325   1.711928   0.000000
     6  H    1.022005   2.090890   3.381877   1.737207   1.644002
     7  H    2.112996   1.105299   2.197621   3.004360   2.352427
     8  H    2.087408   1.095898   2.162451   2.447764   2.942213
     9  H    2.902750   2.311254   1.156001   2.578947   3.302292
    10  H    3.458206   2.167537   1.121804   3.674479   3.773125
    11  H    2.754628   2.155252   1.099998   2.976359   2.618891
                    6          7          8          9         10
     6  H    0.000000
     7  H    2.437678   0.000000
     8  H    2.341320   1.821283   0.000000
     9  H    3.811400   3.220338   2.619592   0.000000
    10  H    4.229761   2.529588   2.520350   1.805594   0.000000
    11  H    3.708499   2.497168   3.064329   1.834868   1.785371
                   11
    11  H    0.000000
 Stoichiometry    C2H8N(1+)
 Framework group  C1[X(C2H8N)]
 Deg. of freedom    27
 Full point group                 C1      NOp   1
 Largest Abelian subgroup         C1      NOp   1
 Largest concise Abelian subgroup C1      NOp   1
                         Standard orientation:                         
 ---------------------------------------------------------------------
 Center     Atomic      Atomic             Coordinates (Angstroms)
 Number     Number       Type             X           Y           Z
 ---------------------------------------------------------------------
      1          7           0       -1.202856   -0.255589    0.004253
      2          6           0        0.029642    0.608882   -0.023559
      3          6           0        1.292435   -0.254675    0.014316
      4          1           0       -1.107403   -1.021806   -0.744846
      5          1           0       -1.296928   -0.692441    0.924374
      6          1           0       -2.037251    0.316115   -0.142153
      7          1           0       -0.032241    1.289526    0.845107
      8          1           0       -0.015679    1.157278   -0.971293
      9          1           0        1.469141   -0.997646   -0.853502
     10          1           0        2.188756    0.419802    0.002750
     11          1           0        1.319139   -0.806943    0.965253
 ---------------------------------------------------------------------
 Rotational constants (GHZ):          28.9946066           8.2880282           7.3431609
 Standard basis: 6-31G(d) (6D, 7F)
 There are    61 symmetry adapted cartesian basis functions of A   symmetry.
 There are    61 symmetry adapted basis functions of A   symmetry.
    61 basis functions,   116 primitive gaussians,    61 cartesian basis functions
    13 alpha electrons       13 beta electrons
       nuclear repulsion energy        89.2634852561 Hartrees.
 NAtoms=   11 NActive=   11 NUniq=   11 SFac= 1.00D+00 NAtFMM=   60 NAOKFM=F Big=F
 Integral buffers will be    131072 words long.
 Raffenetti 2 integral format.
 Two-electron integral symmetry is turned on.
 One-electron integrals computed using PRISM.
 NBasis=    61 RedAO= T EigKep=  6.09D-03  NBF=    61
 NBsUse=    61 1.00D-06 EigRej= -1.00D+00 NBFU=    61
 ExpMin= 1.61D-01 ExpMax= 4.17D+03 ExpMxC= 6.27D+02 IAcc=3 IRadAn=         5 AccDes= 0.00D+00
 Harris functional with IExCor= 4538 and IRadAn=       5 diagonalized for initial guess.
 HarFok:  IExCor= 4538 AccDes= 0.00D+00 IRadAn=         5 IDoV= 1 UseB2=F ITyADJ=14
 ICtDFT=  3500011 ScaDFX=  1.000000  1.000000  1.000000  1.000000
 FoFCou: FMM=F IPFlag=           0 FMFlag=      100000 FMFlg1=           0
         NFxFlg=           0 DoJE=T BraDBF=F KetDBF=T FulRan=T
         wScrn=  0.000000 ICntrl=       500 IOpCl=  0 I1Cent=   200000004 NGrid=           0
         NMat0=    1 NMatS0=      1 NMatT0=    0 NMatD0=    1 NMtDS0=    0 NMtDT0=    0
 Petite list used in FoFCou.
 Keep R1 ints in memory in canonical form, NReq=5346468.
 Requested convergence on RMS density matrix=1.00D-08 within 128 cycles.
 Requested convergence on MAX density matrix=1.00D-06.
 Requested convergence on             energy=1.00D-06.
 No special actions if energy rises.
 Integral accuracy reduced to 1.0D-05 until final iterations.
 Initial convergence to 1.0D-05 achieved.  Increase integral accuracy.
 SCF Done:  E(RwB97X) =  -135.490110833     A.U. after   12 cycles
            NFock= 12  Conv=0.72D-08     -V/T= 2.0117

 **********************************************************************

            Population analysis using the SCF density.

 **********************************************************************

 Orbital symmetries:
       Occupied  (A) (A) (A) (A) (A) (A) (A) (A) (A) (A) (A) (A)
                 (A)
       Virtual   (A) (A) (A) (A) (A) (A) (A) (A) (A) (A) (A) (A)
                 (A) (A) (A) (A) (A) (A) (A) (A) (A) (A) (A) (A)
                 (A) (A) (A) (A) (A) (A) (A) (A) (A) (A) (A) (A)
                 (A) (A) (A) (A) (A) (A) (A) (A) (A) (A) (A) (A)
 The electronic state is 1-A.
 Alpha  occ. eigenvalues --  -14.75391 -10.53071 -10.45768  -1.34225  -1.08774
 Alpha  occ. eigenvalues --   -0.95785  -0.91004  -0.90136  -0.79773  -0.74895
 Alpha  occ. eigenvalues --   -0.68422  -0.66112  -0.64643
 Alpha virt. eigenvalues --   -0.07781  -0.01231  -0.00135   0.02023   0.05471
 Alpha virt. eigenvalues --    0.05669   0.07999   0.09685   0.10688   0.13884
 Alpha virt. eigenvalues --    0.40777   0.43241   0.44143   0.45854   0.52311
 Alpha virt. eigenvalues --    0.56075   0.60657   0.67268   0.70733   0.72385
 Alpha virt. eigenvalues --    0.73714   0.77082   0.79876   0.81457   0.84520
 Alpha virt. eigenvalues --    0.87206   0.89046   0.95041   1.27663   1.28968
 Alpha virt. eigenvalues --    1.33028   1.52606   1.59513   1.77181   1.78694
 Alpha virt. eigenvalues --    1.85329   1.90855   2.01320   2.11238   2.12013
 Alpha virt. eigenvalues --    2.19359   2.26199   2.28934   2.43480   2.55461
 Alpha virt. eigenvalues --    3.63360   4.09290   4.31020
          Condensed to atoms (all electrons):
               1          2          3          4          5          6
     1  N    6.796655   0.164421  -0.055719   0.296648   0.304236   0.307895
     2  C    0.164421   5.107593   0.335610  -0.019593  -0.017538  -0.017217
     3  C   -0.055719   0.335610   5.165516   0.000699  -0.000126   0.003147
     4  H    0.296648  -0.019593   0.000699   0.289984  -0.010927  -0.009055
     5  H    0.304236  -0.017538  -0.000126  -0.010927   0.290370  -0.012345
     6  H    0.307895  -0.017217   0.003147  -0.009055  -0.012345   0.280192
     7  H   -0.034119   0.392762  -0.028518   0.002851  -0.003018  -0.001015
     8  H   -0.036483   0.392743  -0.032265  -0.001982   0.003140  -0.002625
     9  H   -0.002701  -0.026817   0.376109   0.003827  -0.000152  -0.000023
    10  H    0.002881  -0.024587   0.380726  -0.000072  -0.000066  -0.000073
    11  H   -0.002509  -0.039094   0.381915  -0.000384   0.003027  -0.000049
               7          8          9         10         11
     1  N   -0.034119  -0.036483  -0.002701   0.002881  -0.002509
     2  C    0.392762   0.392743  -0.026817  -0.024587  -0.039094
     3  C   -0.028518  -0.032265   0.376109   0.380726   0.381915
     4  H    0.002851  -0.001982   0.003827  -0.000072  -0.000384
     5  H   -0.003018   0.003140  -0.000152  -0.000066   0.003027
     6  H   -0.001015  -0.002625  -0.000023  -0.000073  -0.000049
     7  H    0.433810  -0.018084   0.002285  -0.001711  -0.003284
     8  H   -0.018084   0.441586  -0.002268  -0.001847   0.003494
     9  H    0.002285  -0.002268   0.482231  -0.017974  -0.022632
    10  H   -0.001711  -0.001847  -0.017974   0.430842  -0.017094
    11  H   -0.003284   0.003494  -0.022632  -0.017094   0.492321
 Mulliken charges:
               1
     1  N   -0.741206
     2  C   -0.248282
     3  C   -0.527093
     4  H    0.448005
     5  H    0.443399
     6  H    0.451168
     7  H    0.258040
     8  H    0.254591
     9  H    0.208114
    10  H    0.248975
    11  H    0.204288
 Sum of Mulliken charges =   1.00000
 Mulliken charges with hydrogens summed into heavy atoms:
               1
     1  N    0.601366
     2  C    0.264350
     3  C    0.134284
 Electronic spatial extent (au):  <R**2>=            209.8257
 Charge=              1.0000 electrons
 Dipole moment (field-independent basis, Debye):
    X=             -3.8944    Y=             -0.7104    Z=              0.0070  Tot=              3.9586
 Quadrupole moment (field-independent basis, Debye-Ang):
   XX=             -9.0097   YY=            -15.9319   ZZ=            -16.2756
   XY=              1.2972   XZ=             -0.2986   YZ=              0.3355
 Traceless Quadrupole moment (field-independent basis, Debye-Ang):
   XX=              4.7293   YY=             -2.1928   ZZ=             -2.5365
   XY=              1.2972   XZ=             -0.2986   YZ=              0.3355
 Octapole moment (field-independent basis, Debye-Ang**2):
  XXX=            -16.3759  YYY=             -1.7681  ZZZ=              0.8306  XYY=             -3.9232
  XXY=             -0.2427  XXZ=             -0.2811  XZZ=             -4.5493  YZZ=             -1.9643
  YYZ=             -0.7388  XYZ=              0.3840
 Hexadecapole moment (field-independent basis, Debye-Ang**3):
 XXXX=           -127.1445 YYYY=            -53.6077 ZZZZ=            -31.0334 XXXY=              1.6993
 XXXZ=             -0.5988 YYYX=              4.1765 YYYZ=              2.0756 ZZZX=             -1.2552
 ZZZY=             -0.4673 XXYY=            -32.2596 XXZZ=            -30.1529 YYZZ=            -10.2731
 XXYZ=             -0.1003 YYXZ=              0.0561 ZZXY=              1.7729
 N-N= 8.926348525611D+01 E-N=-4.853427145336D+02  KE= 1.339184943805D+02
 1\1\GINC-NODE67\SP\RwB97X\6-31G(d)\C2H8N1(1+)\YANZ\22-Sep-2023\0\\# 6-
 31g(d) wb97x\\tmpdir/M2_conf_1_26.gjf\\1,1\N,0,0.,0.,0.\C,0,1.5057,0.,
 0.\C,0,2.04287,0.,1.43292\H,0,-0.34794,-0.77799,0.65652\H,0,-0.34481,0
 .90327,0.33395\H,0,-0.35206,-0.12125,-0.95176\H,0,1.82978,0.89409,-0.5
 6326\H,0,1.80096,-0.92607,-0.50617\H,0,1.77698,-0.89607,2.11314\H,0,3.
 16401,0.01039,1.39575\H,0,1.73009,0.9292,1.93167\\Version=ES64L-G16Rev
 A.03\State=1-A\HF=-135.4901108\RMSD=7.228e-09\Dipole=-1.4146736,-0.001
 6417,-0.651404\Quadrupole=2.7257607,-1.864965,-0.8607956,-0.0233266,2.
 0972,-0.3272053\PG=C01 [X(C2H8N1)]\\@


 KEEP CLOSE TO NATURES HEART, YOURSELF;
 AND BREAK CLEAR AWAY, ONCE IN A WHILE, AND
 CLIMB A MOUNTAIN OR SPEND A WEEK IN THE
 WOODS.  WASH YOUR SPIRIT CLEAN...
                                         -- JOHN MUIR
 Job cpu time:       0 days  0 hours  0 minutes 19.0 seconds.
 Elapsed time:       0 days  0 hours  0 minutes  9.6 seconds.
 File lengths (MBytes):  RWF=      6 Int=      0 D2E=      0 Chk=      1 Scr=      1
 Normal termination of Gaussian 16 at Fri Sep 22 16:31:42 2023.
