 Entering Gaussian System, Link 0=g16
 Initial command:
 /share/apps/gaussian/g16/l1.exe "/tmp/55568.mgr/Gau-356624.inp" -scrdir="/tmp/55568.mgr/"
 Entering Link 1 = /share/apps/gaussian/g16/l1.exe PID=    356625.
  
 Copyright (c) 1988,1990,1992,1993,1995,1998,2003,2009,2016,
            Gaussian, Inc.  All Rights Reserved.
  
 This is part of the Gaussian(R) 16 program.  It is based on
 the Gaussian(R) 09 system (copyright 2009, Gaussian, Inc.),
 the Gaussian(R) 03 system (copyright 2003, Gaussian, Inc.),
 the Gaussian(R) 98 system (copyright 1998, Gaussian, Inc.),
 the Gaussian(R) 94 system (copyright 1995, Gaussian, Inc.),
 the Gaussian 92(TM) system (copyright 1992, Gaussian, Inc.),
 the Gaussian 90(TM) system (copyright 1990, Gaussian, Inc.),
 the Gaussian 88(TM) system (copyright 1988, Gaussian, Inc.),
 the Gaussian 86(TM) system (copyright 1986, Carnegie Mellon
 University), and the Gaussian 82(TM) system (copyright 1983,
 Carnegie Mellon University). Gaussian is a federally registered
 trademark of Gaussian, Inc.
  
 This software contains proprietary and confidential information,
 including trade secrets, belonging to Gaussian, Inc.
  
 This software is provided under written license and may be
 used, copied, transmitted, or stored only in accord with that
 written license.
  
 The following legend is applicable only to US Government
 contracts under FAR:
  
                    RESTRICTED RIGHTS LEGEND
  
 Use, reproduction and disclosure by the US Government is
 subject to restrictions as set forth in subparagraphs (a)
 and (c) of the Commercial Computer Software - Restricted
 Rights clause in FAR 52.227-19.
  
 Gaussian, Inc.
 340 Quinnipiac St., Bldg. 40, Wallingford CT 06492
  
  
 ---------------------------------------------------------------
 Warning -- This program may not be used in any manner that
 competes with the business of Gaussian, Inc. or will provide
 assistance to any competitor of Gaussian, Inc.  The licensee
 of this program is prohibited from giving any competitor of
 Gaussian, Inc. access to this program.  By using this program,
 the user acknowledges that Gaussian, Inc. is engaged in the
 business of creating and licensing software in the field of
 computational chemistry and represents and warrants to the
 licensee that it is not a competitor of Gaussian, Inc. and that
 it will not use this program in any manner prohibited above.
 ---------------------------------------------------------------
  

 Cite this work as:
 Gaussian 16, Revision A.03,
 M. J. Frisch, G. W. Trucks, H. B. Schlegel, G. E. Scuseria, 
 M. A. Robb, J. R. Cheeseman, G. Scalmani, V. Barone, 
 G. A. Petersson, H. Nakatsuji, X. Li, M. Caricato, A. V. Marenich, 
 J. Bloino, B. G. Janesko, R. Gomperts, B. Mennucci, H. P. Hratchian, 
 J. V. Ortiz, A. F. Izmaylov, J. L. Sonnenberg, D. Williams-Young, 
 F. Ding, F. Lipparini, F. Egidi, J. Goings, B. Peng, A. Petrone, 
 T. Henderson, D. Ranasinghe, V. G. Zakrzewski, J. Gao, N. Rega, 
 G. Zheng, W. Liang, M. Hada, M. Ehara, K. Toyota, R. Fukuda, 
 J. Hasegawa, M. Ishida, T. Nakajima, Y. Honda, O. Kitao, H. Nakai, 
 T. Vreven, K. Throssell, J. A. Montgomery, Jr., J. E. Peralta, 
 F. Ogliaro, M. J. Bearpark, J. J. Heyd, E. N. Brothers, K. N. Kudin, 
 V. N. Staroverov, T. A. Keith, R. Kobayashi, J. Normand, 
 K. Raghavachari, A. P. Rendell, J. C. Burant, S. S. Iyengar, 
 J. Tomasi, M. Cossi, J. M. Millam, M. Klene, C. Adamo, R. Cammi, 
 J. W. Ochterski, R. L. Martin, K. Morokuma, O. Farkas, 
 J. B. Foresman, and D. J. Fox, Gaussian, Inc., Wallingford CT, 2016.
 
 ******************************************
 Gaussian 16:  ES64L-G16RevA.03 25-Dec-2016
                22-Sep-2023 
 ******************************************
 %nprocshared=2
 Will use up to    2 processors via shared memory.
 %mem=2GB
 ----------------
 # 6-31g(d) wb97x
 ----------------
 1/38=1,172=1/1;
 2/12=2,17=6,18=5,40=1/2;
 3/5=1,6=6,7=1,11=2,25=1,30=1,74=-57/1,2,3;
 4//1;
 5/5=2,38=5/2;
 6/7=2,8=2,9=2,10=2,28=1/1;
 99/5=1,9=1/99;
 -----------------------
 tmpdir/M2_conf_1_57.gjf
 -----------------------
 Symbolic Z-matrix:
 Charge =  0 Multiplicity = 1
 C                     0.        0.        0. 
 C                     1.5496    0.        0. 
 H                     1.87763   0.        1.05644 
 H                    -0.35426  -0.98813   0.354 
 H                    -0.29666   0.93491   0.61178 
 H                    -0.32051   0.1419   -1.04266 
 H                     1.94653  -0.86548  -0.52209 
 H                     1.84986   1.02986  -0.46327 
 
                          Input orientation:                          
 ---------------------------------------------------------------------
 Center     Atomic      Atomic             Coordinates (Angstroms)
 Number     Number       Type             X           Y           Z
 ---------------------------------------------------------------------
      1          6           0        0.000000    0.000000    0.000000
      2          6           0        1.549600    0.000000    0.000000
      3          1           0        1.877630    0.000000    1.056440
      4          1           0       -0.354260   -0.988130    0.354000
      5          1           0       -0.296660    0.934910    0.611780
      6          1           0       -0.320510    0.141900   -1.042660
      7          1           0        1.946530   -0.865480   -0.522090
      8          1           0        1.849860    1.029860   -0.463270
 ---------------------------------------------------------------------
                    Distance matrix (angstroms):
                    1          2          3          4          5
     1  C    0.000000
     2  C    1.549600   0.000000
     3  H    2.154428   1.106196   0.000000
     4  H    1.107798   2.174028   2.539913   0.000000
     5  H    1.156001   2.158010   2.408177   1.941095   0.000000
     6  H    1.100001   2.145830   3.042725   1.796877   1.834831
     7  H    2.193311   1.085904   1.801544   2.464997   3.091758
     8  H    2.167305   1.168498   1.836001   3.098122   2.402560
                    6          7          8
     6  H    0.000000
     7  H    2.534813   0.000000
     8  H    2.415507   1.898715   0.000000
 Stoichiometry    C2H6
 Framework group  C1[X(C2H6)]
 Deg. of freedom    18
 Full point group                 C1      NOp   1
 Largest Abelian subgroup         C1      NOp   1
 Largest concise Abelian subgroup C1      NOp   1
                         Standard orientation:                         
 ---------------------------------------------------------------------
 Center     Atomic      Atomic             Coordinates (Angstroms)
 Number     Number       Type             X           Y           Z
 ---------------------------------------------------------------------
      1          6           0        0.777781   -0.009357   -0.011017
      2          6           0       -0.771680   -0.018528    0.007557
      3          1           0       -1.112894    0.082693   -1.039819
      4          1           0        1.132245   -0.956082   -0.464100
      5          1           0        1.062351    0.982565   -0.532026
      6          1           0        1.110634    0.031943    1.036602
      7          1           0       -1.157961   -0.933188    0.447297
      8          1           0       -1.070979    0.959377    0.572809
 ---------------------------------------------------------------------
 Rotational constants (GHZ):          73.0253495          20.1805800          19.7835780
 Standard basis: 6-31G(d) (6D, 7F)
 There are    42 symmetry adapted cartesian basis functions of A   symmetry.
 There are    42 symmetry adapted basis functions of A   symmetry.
    42 basis functions,    80 primitive gaussians,    42 cartesian basis functions
     9 alpha electrons        9 beta electrons
       nuclear repulsion energy        41.6248547160 Hartrees.
 NAtoms=    8 NActive=    8 NUniq=    8 SFac= 1.00D+00 NAtFMM=   60 NAOKFM=F Big=F
 Integral buffers will be    131072 words long.
 Raffenetti 2 integral format.
 Two-electron integral symmetry is turned on.
 One-electron integrals computed using PRISM.
 NBasis=    42 RedAO= T EigKep=  8.37D-03  NBF=    42
 NBsUse=    42 1.00D-06 EigRej= -1.00D+00 NBFU=    42
 ExpMin= 1.61D-01 ExpMax= 3.05D+03 ExpMxC= 4.57D+02 IAcc=3 IRadAn=         5 AccDes= 0.00D+00
 Harris functional with IExCor= 4538 and IRadAn=       5 diagonalized for initial guess.
 HarFok:  IExCor= 4538 AccDes= 0.00D+00 IRadAn=         5 IDoV= 1 UseB2=F ITyADJ=14
 ICtDFT=  3500011 ScaDFX=  1.000000  1.000000  1.000000  1.000000
 FoFCou: FMM=F IPFlag=           0 FMFlag=      100000 FMFlg1=           0
         NFxFlg=           0 DoJE=T BraDBF=F KetDBF=T FulRan=T
         wScrn=  0.000000 ICntrl=       500 IOpCl=  0 I1Cent=   200000004 NGrid=           0
         NMat0=    1 NMatS0=      1 NMatT0=    0 NMatD0=    1 NMtDS0=    0 NMtDT0=    0
 Petite list used in FoFCou.
 Keep R1 ints in memory in canonical form, NReq=2543288.
 Requested convergence on RMS density matrix=1.00D-08 within 128 cycles.
 Requested convergence on MAX density matrix=1.00D-06.
 Requested convergence on             energy=1.00D-06.
 No special actions if energy rises.
 Integral accuracy reduced to 1.0D-05 until final iterations.
 Initial convergence to 1.0D-05 achieved.  Increase integral accuracy.
 SCF Done:  E(RwB97X) =  -79.7897229382     A.U. after   12 cycles
            NFock= 12  Conv=0.37D-08     -V/T= 2.0130

 **********************************************************************

            Population analysis using the SCF density.

 **********************************************************************

 Orbital symmetries:
       Occupied  (A) (A) (A) (A) (A) (A) (A) (A) (A)
       Virtual   (A) (A) (A) (A) (A) (A) (A) (A) (A) (A) (A) (A)
                 (A) (A) (A) (A) (A) (A) (A) (A) (A) (A) (A) (A)
                 (A) (A) (A) (A) (A) (A) (A) (A) (A)
 The electronic state is 1-A.
 Alpha  occ. eigenvalues --  -10.26407 -10.26295  -0.87521  -0.72050  -0.55077
 Alpha  occ. eigenvalues --   -0.53759  -0.44865  -0.44546  -0.43263
 Alpha virt. eigenvalues --    0.18471   0.24860   0.25775   0.26011   0.27144
 Alpha virt. eigenvalues --    0.28622   0.32034   0.61796   0.65904   0.68213
 Alpha virt. eigenvalues --    0.72178   0.74673   0.77334   0.95199   0.98481
 Alpha virt. eigenvalues --    1.00499   1.03348   1.04484   1.08271   1.17941
 Alpha virt. eigenvalues --    1.52402   1.61511   1.62595   2.03384   2.11424
 Alpha virt. eigenvalues --    2.15453   2.31210   2.32872   2.36876   2.41769
 Alpha virt. eigenvalues --    2.69792   4.25471   4.48101
          Condensed to atoms (all electrons):
               1          2          3          4          5          6
     1  C    5.069612   0.344970  -0.039011   0.385693   0.382749   0.387302
     2  C    0.344970   5.074351   0.386581  -0.037715  -0.039973  -0.039188
     3  H   -0.039011   0.386581   0.555717  -0.002910  -0.005103   0.004743
     4  H    0.385693  -0.037715  -0.002910   0.541536  -0.016496  -0.029101
     5  H    0.382749  -0.039973  -0.005103  -0.016496   0.559158  -0.027121
     6  H    0.387302  -0.039188   0.004743  -0.029101  -0.027121   0.554517
     7  H   -0.034374   0.388220  -0.027539  -0.002680   0.004104  -0.002716
     8  H   -0.040594   0.380769  -0.027485   0.004330  -0.002658  -0.005255
               7          8
     1  C   -0.034374  -0.040594
     2  C    0.388220   0.380769
     3  H   -0.027539  -0.027485
     4  H   -0.002680   0.004330
     5  H    0.004104  -0.002658
     6  H   -0.002716  -0.005255
     7  H    0.532196  -0.019592
     8  H   -0.019592   0.573015
 Mulliken charges:
               1
     1  C   -0.456347
     2  C   -0.458016
     3  H    0.155007
     4  H    0.157344
     5  H    0.145341
     6  H    0.156819
     7  H    0.162381
     8  H    0.137471
 Sum of Mulliken charges =  -0.00000
 Mulliken charges with hydrogens summed into heavy atoms:
               1
     1  C    0.003158
     2  C   -0.003158
 Electronic spatial extent (au):  <R**2>=            110.2550
 Charge=              0.0000 electrons
 Dipole moment (field-independent basis, Debye):
    X=             -0.0075    Y=             -0.0559    Z=              0.0129  Tot=              0.0579
 Quadrupole moment (field-independent basis, Debye-Ang):
   XX=            -16.1481   YY=            -14.2986   ZZ=            -14.8802
   XY=              0.0515   XZ=              0.1367   YZ=             -0.0484
 Traceless Quadrupole moment (field-independent basis, Debye-Ang):
   XX=             -1.0391   YY=              0.8104   ZZ=              0.2287
   XY=              0.0515   XZ=              0.1367   YZ=             -0.0484
 Octapole moment (field-independent basis, Debye-Ang**2):
  XXX=             -0.1602  YYY=             -0.3240  ZZZ=              0.0525  XYY=              0.0750
  XXY=             -0.4781  XXZ=              0.0741  XZZ=             -0.0427  YZZ=              0.0907
  YYZ=             -0.0292  XYZ=              0.0886
 Hexadecapole moment (field-independent basis, Debye-Ang**3):
 XXXX=            -94.4407 YYYY=            -30.1767 ZZZZ=            -29.1161 XXXY=              0.2512
 XXXZ=              0.4888 YYYX=              0.1880 YYYZ=             -0.0602 ZZZX=              1.7234
 ZZZY=             -0.1163 XXYY=            -19.1753 XXZZ=            -19.5314 YYZZ=             -9.9513
 XXYZ=             -0.1060 YYXZ=             -1.4117 ZZXY=             -0.0286
 N-N= 4.162485471599D+01 E-N=-2.668455490005D+02  KE= 7.876367607879D+01
 1\1\GINC-NODE67\SP\RwB97X\6-31G(d)\C2H6\YANZ\22-Sep-2023\0\\# 6-31g(d)
  wb97x\\tmpdir/M2_conf_1_57.gjf\\0,1\C,0,0.,0.,0.\C,0,1.5496,0.,0.\H,0
 ,1.87763,0.,1.05644\H,0,-0.35426,-0.98813,0.354\H,0,-0.29666,0.93491,0
 .61178\H,0,-0.32051,0.1419,-1.04266\H,0,1.94653,-0.86548,-0.52209\H,0,
 1.84986,1.02986,-0.46327\\Version=ES64L-G16RevA.03\State=1-A\HF=-79.78
 97229\RMSD=3.682e-09\Dipole=0.0031545,-0.0213877,-0.0071482\Quadrupole
 =-0.774351,0.5908859,0.1834652,-0.0554571,0.0851006,0.0771324\PG=C01 [
 X(C2H6)]\\@


 THOSE WITH THE GOLD MAKE THE RULES.

             -- PETER'S GOLDEN RULE
 Job cpu time:       0 days  0 hours  0 minutes 10.9 seconds.
 Elapsed time:       0 days  0 hours  0 minutes  5.5 seconds.
 File lengths (MBytes):  RWF=      6 Int=      0 D2E=      0 Chk=      1 Scr=      1
 Normal termination of Gaussian 16 at Fri Sep 22 16:31:41 2023.
