 Entering Gaussian System, Link 0=g16
 Initial command:
 /share/apps/gaussian/g16/l1.exe "/tmp/55568.mgr/Gau-356432.inp" -scrdir="/tmp/55568.mgr/"
 Entering Link 1 = /share/apps/gaussian/g16/l1.exe PID=    356433.
  
 Copyright (c) 1988,1990,1992,1993,1995,1998,2003,2009,2016,
            Gaussian, Inc.  All Rights Reserved.
  
 This is part of the Gaussian(R) 16 program.  It is based on
 the Gaussian(R) 09 system (copyright 2009, Gaussian, Inc.),
 the Gaussian(R) 03 system (copyright 2003, Gaussian, Inc.),
 the Gaussian(R) 98 system (copyright 1998, Gaussian, Inc.),
 the Gaussian(R) 94 system (copyright 1995, Gaussian, Inc.),
 the Gaussian 92(TM) system (copyright 1992, Gaussian, Inc.),
 the Gaussian 90(TM) system (copyright 1990, Gaussian, Inc.),
 the Gaussian 88(TM) system (copyright 1988, Gaussian, Inc.),
 the Gaussian 86(TM) system (copyright 1986, Carnegie Mellon
 University), and the Gaussian 82(TM) system (copyright 1983,
 Carnegie Mellon University). Gaussian is a federally registered
 trademark of Gaussian, Inc.
  
 This software contains proprietary and confidential information,
 including trade secrets, belonging to Gaussian, Inc.
  
 This software is provided under written license and may be
 used, copied, transmitted, or stored only in accord with that
 written license.
  
 The following legend is applicable only to US Government
 contracts under FAR:
  
                    RESTRICTED RIGHTS LEGEND
  
 Use, reproduction and disclosure by the US Government is
 subject to restrictions as set forth in subparagraphs (a)
 and (c) of the Commercial Computer Software - Restricted
 Rights clause in FAR 52.227-19.
  
 Gaussian, Inc.
 340 Quinnipiac St., Bldg. 40, Wallingford CT 06492
  
  
 ---------------------------------------------------------------
 Warning -- This program may not be used in any manner that
 competes with the business of Gaussian, Inc. or will provide
 assistance to any competitor of Gaussian, Inc.  The licensee
 of this program is prohibited from giving any competitor of
 Gaussian, Inc. access to this program.  By using this program,
 the user acknowledges that Gaussian, Inc. is engaged in the
 business of creating and licensing software in the field of
 computational chemistry and represents and warrants to the
 licensee that it is not a competitor of Gaussian, Inc. and that
 it will not use this program in any manner prohibited above.
 ---------------------------------------------------------------
  

 Cite this work as:
 Gaussian 16, Revision A.03,
 M. J. Frisch, G. W. Trucks, H. B. Schlegel, G. E. Scuseria, 
 M. A. Robb, J. R. Cheeseman, G. Scalmani, V. Barone, 
 G. A. Petersson, H. Nakatsuji, X. Li, M. Caricato, A. V. Marenich, 
 J. Bloino, B. G. Janesko, R. Gomperts, B. Mennucci, H. P. Hratchian, 
 J. V. Ortiz, A. F. Izmaylov, J. L. Sonnenberg, D. Williams-Young, 
 F. Ding, F. Lipparini, F. Egidi, J. Goings, B. Peng, A. Petrone, 
 T. Henderson, D. Ranasinghe, V. G. Zakrzewski, J. Gao, N. Rega, 
 G. Zheng, W. Liang, M. Hada, M. Ehara, K. Toyota, R. Fukuda, 
 J. Hasegawa, M. Ishida, T. Nakajima, Y. Honda, O. Kitao, H. Nakai, 
 T. Vreven, K. Throssell, J. A. Montgomery, Jr., J. E. Peralta, 
 F. Ogliaro, M. J. Bearpark, J. J. Heyd, E. N. Brothers, K. N. Kudin, 
 V. N. Staroverov, T. A. Keith, R. Kobayashi, J. Normand, 
 K. Raghavachari, A. P. Rendell, J. C. Burant, S. S. Iyengar, 
 J. Tomasi, M. Cossi, J. M. Millam, M. Klene, C. Adamo, R. Cammi, 
 J. W. Ochterski, R. L. Martin, K. Morokuma, O. Farkas, 
 J. B. Foresman, and D. J. Fox, Gaussian, Inc., Wallingford CT, 2016.
 
 ******************************************
 Gaussian 16:  ES64L-G16RevA.03 25-Dec-2016
                22-Sep-2023 
 ******************************************
 %nprocshared=2
 Will use up to    2 processors via shared memory.
 %mem=2GB
 ----------------
 # 6-31g(d) wb97x
 ----------------
 1/38=1,172=1/1;
 2/12=2,17=6,18=5,40=1/2;
 3/5=1,6=6,7=1,11=2,25=1,30=1,74=-57/1,2,3;
 4//1;
 5/5=2,38=5/2;
 6/7=2,8=2,9=2,10=2,28=1/1;
 99/5=1,9=1/99;
 -----------------------
 tmpdir/M2_conf_1_35.gjf
 -----------------------
 Symbolic Z-matrix:
 Charge =  1 Multiplicity = 1
 H                     0.        0.        0. 
 N                     1.0758    0.        0. 
 H                     1.3856    0.        0.97486 
 H                     1.41678  -0.86563  -0.49595 
 H                     1.45501   0.83577  -0.44964 
 
                          Input orientation:                          
 ---------------------------------------------------------------------
 Center     Atomic      Atomic             Coordinates (Angstroms)
 Number     Number       Type             X           Y           Z
 ---------------------------------------------------------------------
      1          1           0        0.000000    0.000000    0.000000
      2          7           0        1.075800    0.000000    0.000000
      3          1           0        1.385600    0.000000    0.974860
      4          1           0        1.416780   -0.865630   -0.495950
      5          1           0        1.455010    0.835770   -0.449640
 ---------------------------------------------------------------------
                    Distance matrix (angstroms):
                    1          2          3          4          5
     1  H    0.000000
     2  N    1.075800   0.000000
     3  H    1.694178   1.022902   0.000000
     4  H    1.732786   1.054300   1.706918   0.000000
     5  H    1.737165   1.022002   1.653036   1.702459   0.000000
 Stoichiometry    H4N(1+)
 Framework group  C1[X(H4N)]
 Deg. of freedom     9
 Full point group                 C1      NOp   1
 Largest Abelian subgroup         C1      NOp   1
 Largest concise Abelian subgroup C1      NOp   1
                         Standard orientation:                         
 ---------------------------------------------------------------------
 Center     Atomic      Atomic             Coordinates (Angstroms)
 Number     Number       Type             X           Y           Z
 ---------------------------------------------------------------------
      1          1           0        1.032923    0.044421   -0.281982
      2          7           0       -0.004940   -0.001083   -0.002492
      3          1           0       -0.067313   -0.526771    0.872773
      4          1           0       -0.365819    0.980665    0.129740
      5          1           0       -0.565208   -0.490733   -0.703085
 ---------------------------------------------------------------------
 Rotational constants (GHZ):         176.9127736         174.2677731         166.7616408
 Standard basis: 6-31G(d) (6D, 7F)
 There are    23 symmetry adapted cartesian basis functions of A   symmetry.
 There are    23 symmetry adapted basis functions of A   symmetry.
    23 basis functions,    44 primitive gaussians,    23 cartesian basis functions
     5 alpha electrons        5 beta electrons
       nuclear repulsion energy        16.0658393074 Hartrees.
 NAtoms=    5 NActive=    5 NUniq=    5 SFac= 1.00D+00 NAtFMM=   60 NAOKFM=F Big=F
 Integral buffers will be    131072 words long.
 Raffenetti 2 integral format.
 Two-electron integral symmetry is turned on.
 One-electron integrals computed using PRISM.
 NBasis=    23 RedAO= T EigKep=  2.02D-02  NBF=    23
 NBsUse=    23 1.00D-06 EigRej= -1.00D+00 NBFU=    23
 ExpMin= 1.61D-01 ExpMax= 4.17D+03 ExpMxC= 6.27D+02 IAcc=3 IRadAn=         5 AccDes= 0.00D+00
 Harris functional with IExCor= 4538 and IRadAn=       5 diagonalized for initial guess.
 HarFok:  IExCor= 4538 AccDes= 0.00D+00 IRadAn=         5 IDoV= 1 UseB2=F ITyADJ=14
 ICtDFT=  3500011 ScaDFX=  1.000000  1.000000  1.000000  1.000000
 FoFCou: FMM=F IPFlag=           0 FMFlag=      100000 FMFlg1=           0
         NFxFlg=           0 DoJE=T BraDBF=F KetDBF=T FulRan=T
         wScrn=  0.000000 ICntrl=       500 IOpCl=  0 I1Cent=   200000004 NGrid=           0
         NMat0=    1 NMatS0=      1 NMatT0=    0 NMatD0=    1 NMtDS0=    0 NMtDT0=    0
 Petite list used in FoFCou.
 Keep R1 ints in memory in canonical form, NReq=1800744.
 Requested convergence on RMS density matrix=1.00D-08 within 128 cycles.
 Requested convergence on MAX density matrix=1.00D-06.
 Requested convergence on             energy=1.00D-06.
 No special actions if energy rises.
 Integral accuracy reduced to 1.0D-05 until final iterations.
 Initial convergence to 1.0D-05 achieved.  Increase integral accuracy.
 SCF Done:  E(RwB97X) =  -56.8735435444     A.U. after   10 cycles
            NFock= 10  Conv=0.71D-08     -V/T= 2.0120

 **********************************************************************

            Population analysis using the SCF density.

 **********************************************************************

 Orbital symmetries:
       Occupied  (A) (A) (A) (A) (A)
       Virtual   (A) (A) (A) (A) (A) (A) (A) (A) (A) (A) (A) (A)
                 (A) (A) (A) (A) (A) (A)
 The electronic state is 1-A.
 Alpha  occ. eigenvalues --  -14.79090  -1.36608  -0.93385  -0.93136  -0.91793
 Alpha virt. eigenvalues --   -0.10731  -0.03541  -0.01992  -0.01403   0.44519
 Alpha virt. eigenvalues --    0.46230   0.46709   0.66731   0.68198   0.69930
 Alpha virt. eigenvalues --    0.71702   1.09635   1.36014   1.36785   2.04538
 Alpha virt. eigenvalues --    2.08178   2.11602   3.49569
          Condensed to atoms (all electrons):
               1          2          3          4          5
     1  H    0.254826   0.293484  -0.008345  -0.007677  -0.006480
     2  N    0.293484   6.692639   0.301627   0.296664   0.301856
     3  H   -0.008345   0.301627   0.254522  -0.007119  -0.008699
     4  H   -0.007677   0.296664  -0.007119   0.252111  -0.007485
     5  H   -0.006480   0.301856  -0.008699  -0.007485   0.250250
 Mulliken charges:
               1
     1  H    0.474192
     2  N   -0.886270
     3  H    0.468014
     4  H    0.473506
     5  H    0.470558
 Sum of Mulliken charges =   1.00000
 Mulliken charges with hydrogens summed into heavy atoms:
               1
     2  N    1.000000
 Electronic spatial extent (au):  <R**2>=             25.1931
 Charge=              1.0000 electrons
 Dipole moment (field-independent basis, Debye):
    X=              0.0762    Y=              0.0277    Z=              0.0249  Tot=              0.0848
 Quadrupole moment (field-independent basis, Debye-Ang):
   XX=             -4.1458   YY=             -4.2375   ZZ=             -4.5634
   XY=              0.0061   XZ=              0.0137   YZ=              0.0028
 Traceless Quadrupole moment (field-independent basis, Debye-Ang):
   XX=              0.1697   YY=              0.0781   ZZ=             -0.2478
   XY=              0.0061   XZ=              0.0137   YZ=              0.0028
 Octapole moment (field-independent basis, Debye-Ang**2):
  XXX=              1.9661  YYY=              1.4956  ZZZ=              0.6888  XYY=             -1.1491
  XXY=              0.0308  XXZ=             -1.1208  XZZ=             -0.5738  YZZ=             -1.3955
  YYZ=              0.4531  XYZ=             -0.5024
 Hexadecapole moment (field-independent basis, Debye-Ang**3):
 XXXX=             -5.7425 YYYY=             -6.0907 ZZZZ=             -6.4562 XXXY=              0.2534
 XXXZ=             -0.4576 YYYX=             -0.6735 YYYZ=              0.2015 ZZZX=              0.3673
 ZZZY=             -0.4544 XXYY=             -2.4379 XXZZ=             -2.2951 YYZZ=             -2.0163
 XXYZ=              0.2839 YYXZ=              0.0980 ZZXY=              0.4174
 N-N= 1.606583930745D+01 E-N=-1.605654740100D+02  KE= 5.619736857979D+01
 1\1\GINC-NODE67\SP\RwB97X\6-31G(d)\H4N1(1+)\YANZ\22-Sep-2023\0\\# 6-31
 g(d) wb97x\\tmpdir/M2_conf_1_35.gjf\\1,1\H,0,0.,0.,0.\N,0,1.0758,0.,0.
 \H,0,1.3856,0.,0.97486\H,0,1.41678,-0.86563,-0.49595\H,0,1.45501,0.835
 77,-0.44964\\Version=ES64L-G16RevA.03\State=1-A\HF=-56.8735435\RMSD=7.
 053e-09\Dipole=-0.0268322,-0.0173987,0.0095461\Quadrupole=0.1003346,-0
 .0024274,-0.0979072,0.0474276,-0.0727423,0.0968301\PG=C01 [X(H4N1)]\\@


 MY DESCRIPTION OF EXPERIENCE IS NOT WHAT HAPPENS
 TO A MAN.  EXPERIENCE IS WHAT A MAN DOES WITH WHAT
 HAPPENS TO HIM.
                         - CHUCK KNOX, SEATTLE SEAHAWKS, 1985
 Job cpu time:       0 days  0 hours  0 minutes  4.9 seconds.
 Elapsed time:       0 days  0 hours  0 minutes  2.5 seconds.
 File lengths (MBytes):  RWF=      6 Int=      0 D2E=      0 Chk=      1 Scr=      1
 Normal termination of Gaussian 16 at Fri Sep 22 16:31:31 2023.
