 Entering Gaussian System, Link 0=g16
 Initial command:
 /share/apps/gaussian/g16/l1.exe "/tmp/55568.mgr/Gau-357505.inp" -scrdir="/tmp/55568.mgr/"
 Entering Link 1 = /share/apps/gaussian/g16/l1.exe PID=    357506.
  
 Copyright (c) 1988,1990,1992,1993,1995,1998,2003,2009,2016,
            Gaussian, Inc.  All Rights Reserved.
  
 This is part of the Gaussian(R) 16 program.  It is based on
 the Gaussian(R) 09 system (copyright 2009, Gaussian, Inc.),
 the Gaussian(R) 03 system (copyright 2003, Gaussian, Inc.),
 the Gaussian(R) 98 system (copyright 1998, Gaussian, Inc.),
 the Gaussian(R) 94 system (copyright 1995, Gaussian, Inc.),
 the Gaussian 92(TM) system (copyright 1992, Gaussian, Inc.),
 the Gaussian 90(TM) system (copyright 1990, Gaussian, Inc.),
 the Gaussian 88(TM) system (copyright 1988, Gaussian, Inc.),
 the Gaussian 86(TM) system (copyright 1986, Carnegie Mellon
 University), and the Gaussian 82(TM) system (copyright 1983,
 Carnegie Mellon University). Gaussian is a federally registered
 trademark of Gaussian, Inc.
  
 This software contains proprietary and confidential information,
 including trade secrets, belonging to Gaussian, Inc.
  
 This software is provided under written license and may be
 used, copied, transmitted, or stored only in accord with that
 written license.
  
 The following legend is applicable only to US Government
 contracts under FAR:
  
                    RESTRICTED RIGHTS LEGEND
  
 Use, reproduction and disclosure by the US Government is
 subject to restrictions as set forth in subparagraphs (a)
 and (c) of the Commercial Computer Software - Restricted
 Rights clause in FAR 52.227-19.
  
 Gaussian, Inc.
 340 Quinnipiac St., Bldg. 40, Wallingford CT 06492
  
  
 ---------------------------------------------------------------
 Warning -- This program may not be used in any manner that
 competes with the business of Gaussian, Inc. or will provide
 assistance to any competitor of Gaussian, Inc.  The licensee
 of this program is prohibited from giving any competitor of
 Gaussian, Inc. access to this program.  By using this program,
 the user acknowledges that Gaussian, Inc. is engaged in the
 business of creating and licensing software in the field of
 computational chemistry and represents and warrants to the
 licensee that it is not a competitor of Gaussian, Inc. and that
 it will not use this program in any manner prohibited above.
 ---------------------------------------------------------------
  

 Cite this work as:
 Gaussian 16, Revision A.03,
 M. J. Frisch, G. W. Trucks, H. B. Schlegel, G. E. Scuseria, 
 M. A. Robb, J. R. Cheeseman, G. Scalmani, V. Barone, 
 G. A. Petersson, H. Nakatsuji, X. Li, M. Caricato, A. V. Marenich, 
 J. Bloino, B. G. Janesko, R. Gomperts, B. Mennucci, H. P. Hratchian, 
 J. V. Ortiz, A. F. Izmaylov, J. L. Sonnenberg, D. Williams-Young, 
 F. Ding, F. Lipparini, F. Egidi, J. Goings, B. Peng, A. Petrone, 
 T. Henderson, D. Ranasinghe, V. G. Zakrzewski, J. Gao, N. Rega, 
 G. Zheng, W. Liang, M. Hada, M. Ehara, K. Toyota, R. Fukuda, 
 J. Hasegawa, M. Ishida, T. Nakajima, Y. Honda, O. Kitao, H. Nakai, 
 T. Vreven, K. Throssell, J. A. Montgomery, Jr., J. E. Peralta, 
 F. Ogliaro, M. J. Bearpark, J. J. Heyd, E. N. Brothers, K. N. Kudin, 
 V. N. Staroverov, T. A. Keith, R. Kobayashi, J. Normand, 
 K. Raghavachari, A. P. Rendell, J. C. Burant, S. S. Iyengar, 
 J. Tomasi, M. Cossi, J. M. Millam, M. Klene, C. Adamo, R. Cammi, 
 J. W. Ochterski, R. L. Martin, K. Morokuma, O. Farkas, 
 J. B. Foresman, and D. J. Fox, Gaussian, Inc., Wallingford CT, 2016.
 
 ******************************************
 Gaussian 16:  ES64L-G16RevA.03 25-Dec-2016
                22-Sep-2023 
 ******************************************
 %nprocshared=2
 Will use up to    2 processors via shared memory.
 %mem=2GB
 ----------------
 # 6-31g(d) wb97x
 ----------------
 1/38=1,172=1/1;
 2/12=2,17=6,18=5,40=1/2;
 3/5=1,6=6,7=1,11=2,25=1,30=1,74=-57/1,2,3;
 4//1;
 5/5=2,38=5/2;
 6/7=2,8=2,9=2,10=2,28=1/1;
 99/5=1,9=1/99;
 ------------------------
 tmpdir/M2_conf_1_101.gjf
 ------------------------
 Symbolic Z-matrix:
 Charge =  0 Multiplicity = 1
 C                     0.        0.        0. 
 H                     1.0974    0.        0. 
 H                    -0.33727   0.       -1.05174 
 H                    -0.37394  -0.85847   0.58671 
 H                    -0.31837   0.93516   0.47423 
 
                          Input orientation:                          
 ---------------------------------------------------------------------
 Center     Atomic      Atomic             Coordinates (Angstroms)
 Number     Number       Type             X           Y           Z
 ---------------------------------------------------------------------
      1          6           0        0.000000    0.000000    0.000000
      2          1           0        1.097400    0.000000    0.000000
      3          1           0       -0.337270    0.000000   -1.051740
      4          1           0       -0.373940   -0.858470    0.586710
      5          1           0       -0.318370    0.935160    0.474230
 ---------------------------------------------------------------------
                    Distance matrix (angstroms):
                    1          2          3          4          5
     1  C    0.000000
     2  H    1.097400   0.000000
     3  H    1.104494   1.778886   0.000000
     4  H    1.105002   1.801677   1.850090   0.000000
     5  H    1.095800   1.761767   1.789823   1.798012   0.000000
 Stoichiometry    CH4
 Framework group  C1[X(CH4)]
 Deg. of freedom     9
 Full point group                 C1      NOp   1
 Largest Abelian subgroup         C1      NOp   1
 Largest concise Abelian subgroup C1      NOp   1
                         Standard orientation:                         
 ---------------------------------------------------------------------
 Center     Atomic      Atomic             Coordinates (Angstroms)
 Number     Number       Type             X           Y           Z
 ---------------------------------------------------------------------
      1          6           0       -0.004288   -0.008920   -0.002776
      2          1           0        0.170866    0.433519    0.986090
      3          1           0        0.825226   -0.707717   -0.211336
      4          1           0       -1.002083   -0.483001   -0.028909
      5          1           0        0.031720    0.810717   -0.729189
 ---------------------------------------------------------------------
 Rotational constants (GHZ):         160.2199935         153.5750802         152.1554944
 Standard basis: 6-31G(d) (6D, 7F)
 There are    23 symmetry adapted cartesian basis functions of A   symmetry.
 There are    23 symmetry adapted basis functions of A   symmetry.
    23 basis functions,    44 primitive gaussians,    23 cartesian basis functions
     5 alpha electrons        5 beta electrons
       nuclear repulsion energy        13.3063301825 Hartrees.
 NAtoms=    5 NActive=    5 NUniq=    5 SFac= 1.00D+00 NAtFMM=   60 NAOKFM=F Big=F
 Integral buffers will be    131072 words long.
 Raffenetti 2 integral format.
 Two-electron integral symmetry is turned on.
 One-electron integrals computed using PRISM.
 NBasis=    23 RedAO= T EigKep=  1.84D-02  NBF=    23
 NBsUse=    23 1.00D-06 EigRej= -1.00D+00 NBFU=    23
 ExpMin= 1.61D-01 ExpMax= 3.05D+03 ExpMxC= 4.57D+02 IAcc=3 IRadAn=         5 AccDes= 0.00D+00
 Harris functional with IExCor= 4538 and IRadAn=       5 diagonalized for initial guess.
 HarFok:  IExCor= 4538 AccDes= 0.00D+00 IRadAn=         5 IDoV= 1 UseB2=F ITyADJ=14
 ICtDFT=  3500011 ScaDFX=  1.000000  1.000000  1.000000  1.000000
 FoFCou: FMM=F IPFlag=           0 FMFlag=      100000 FMFlg1=           0
         NFxFlg=           0 DoJE=T BraDBF=F KetDBF=T FulRan=T
         wScrn=  0.000000 ICntrl=       500 IOpCl=  0 I1Cent=   200000004 NGrid=           0
         NMat0=    1 NMatS0=      1 NMatT0=    0 NMatD0=    1 NMtDS0=    0 NMtDT0=    0
 Petite list used in FoFCou.
 Keep R1 ints in memory in canonical form, NReq=1800744.
 Requested convergence on RMS density matrix=1.00D-08 within 128 cycles.
 Requested convergence on MAX density matrix=1.00D-06.
 Requested convergence on             energy=1.00D-06.
 No special actions if energy rises.
 Integral accuracy reduced to 1.0D-05 until final iterations.
 Initial convergence to 1.0D-05 achieved.  Increase integral accuracy.
 SCF Done:  E(RwB97X) =  -40.4988266190     A.U. after   11 cycles
            NFock= 11  Conv=0.24D-08     -V/T= 2.0120

 **********************************************************************

            Population analysis using the SCF density.

 **********************************************************************

 Orbital symmetries:
       Occupied  (A) (A) (A) (A) (A)
       Virtual   (A) (A) (A) (A) (A) (A) (A) (A) (A) (A) (A) (A)
                 (A) (A) (A) (A) (A) (A)
 The electronic state is 1-A.
 Alpha  occ. eigenvalues --  -10.25212  -0.81563  -0.49988  -0.49122  -0.48948
 Alpha virt. eigenvalues --    0.21435   0.27123   0.27325   0.27493   0.63899
 Alpha virt. eigenvalues --    0.64049   0.64920   1.00700   1.01211   1.01700
 Alpha virt. eigenvalues --    1.06308   1.20664   1.75841   1.76062   2.32541
 Alpha virt. eigenvalues --    2.35200   2.35969   4.30214
          Condensed to atoms (all electrons):
               1          2          3          4          5
     1  C    5.126461   0.384075   0.384615   0.385109   0.384477
     2  H    0.384075   0.526785  -0.025872  -0.023632  -0.026645
     3  H    0.384615  -0.025872   0.519315  -0.019573  -0.024630
     4  H    0.385109  -0.023632  -0.019573   0.514962  -0.024086
     5  H    0.384477  -0.026645  -0.024630  -0.024086   0.524797
 Mulliken charges:
               1
     1  C   -0.664737
     2  H    0.165288
     3  H    0.166144
     4  H    0.167219
     5  H    0.166087
 Sum of Mulliken charges =  -0.00000
 Mulliken charges with hydrogens summed into heavy atoms:
               1
     1  C   -0.000000
 Electronic spatial extent (au):  <R**2>=             35.7507
 Charge=             -0.0000 electrons
 Dipole moment (field-independent basis, Debye):
    X=              0.0168    Y=              0.0426    Z=              0.0113  Tot=              0.0472
 Quadrupole moment (field-independent basis, Debye-Ang):
   XX=             -8.1183   YY=             -8.3223   ZZ=             -8.3741
   XY=              0.0040   XZ=             -0.0001   YZ=             -0.0029
 Traceless Quadrupole moment (field-independent basis, Debye-Ang):
   XX=              0.1533   YY=             -0.0507   ZZ=             -0.1026
   XY=              0.0040   XZ=             -0.0001   YZ=             -0.0029
 Octapole moment (field-independent basis, Debye-Ang**2):
  XXX=             -0.3205  YYY=              0.2121  ZZZ=              0.4107  XYY=              0.1849
  XXY=             -0.7070  XXZ=             -0.1030  XZZ=              0.1726  YZZ=              0.6104
  YYZ=             -0.2814  XYZ=              0.1205
 Hexadecapole moment (field-independent basis, Debye-Ang**3):
 XXXX=            -15.2391 YYYY=            -15.6763 ZZZZ=            -15.0984 XXXY=              0.1056
 XXXZ=             -0.0974 YYYX=             -0.1580 YYYZ=             -0.2684 ZZZX=              0.1633
 ZZZY=              0.1169 XXYY=             -4.9257 XXZZ=             -5.4998 YYZZ=             -4.8785
 XXYZ=              0.1414 YYXZ=             -0.0712 ZZXY=              0.0719
 N-N= 1.330633018248D+01 E-N=-1.195930085916D+02  KE= 4.001847411693D+01
 1\1\GINC-NODE67\SP\RwB97X\6-31G(d)\C1H4\YANZ\22-Sep-2023\0\\# 6-31g(d)
  wb97x\\tmpdir/M2_conf_1_101.gjf\\0,1\C,0,0.,0.,0.\H,0,1.0974,0.,0.\H,
 0,-0.33727,0.,-1.05174\H,0,-0.37394,-0.85847,0.58671\H,0,-0.31837,0.93
 516,0.47423\\Version=ES64L-G16RevA.03\State=1-A\HF=-40.4988266\RMSD=2.
 377e-09\Dipole=0.011828,0.0139971,0.0030259\Quadrupole=-0.0663256,-0.0
 001598,0.0664854,0.0271789,-0.018816,-0.0679734\PG=C01 [X(C1H4)]\\@


 WHEN IT COMES TO CASH FLOW, IT SEEMS LIKE THE TIDE IS ALWAYS GOING OUT.
 Job cpu time:       0 days  0 hours  0 minutes  5.2 seconds.
 Elapsed time:       0 days  0 hours  0 minutes  2.7 seconds.
 File lengths (MBytes):  RWF=      6 Int=      0 D2E=      0 Chk=      1 Scr=      1
 Normal termination of Gaussian 16 at Fri Sep 22 16:32:10 2023.
