 Entering Gaussian System, Link 0=g16
 Initial command:
 /share/apps/gaussian/g16/l1.exe "/tmp/55568.mgr/Gau-356839.inp" -scrdir="/tmp/55568.mgr/"
 Entering Link 1 = /share/apps/gaussian/g16/l1.exe PID=    356840.
  
 Copyright (c) 1988,1990,1992,1993,1995,1998,2003,2009,2016,
            Gaussian, Inc.  All Rights Reserved.
  
 This is part of the Gaussian(R) 16 program.  It is based on
 the Gaussian(R) 09 system (copyright 2009, Gaussian, Inc.),
 the Gaussian(R) 03 system (copyright 2003, Gaussian, Inc.),
 the Gaussian(R) 98 system (copyright 1998, Gaussian, Inc.),
 the Gaussian(R) 94 system (copyright 1995, Gaussian, Inc.),
 the Gaussian 92(TM) system (copyright 1992, Gaussian, Inc.),
 the Gaussian 90(TM) system (copyright 1990, Gaussian, Inc.),
 the Gaussian 88(TM) system (copyright 1988, Gaussian, Inc.),
 the Gaussian 86(TM) system (copyright 1986, Carnegie Mellon
 University), and the Gaussian 82(TM) system (copyright 1983,
 Carnegie Mellon University). Gaussian is a federally registered
 trademark of Gaussian, Inc.
  
 This software contains proprietary and confidential information,
 including trade secrets, belonging to Gaussian, Inc.
  
 This software is provided under written license and may be
 used, copied, transmitted, or stored only in accord with that
 written license.
  
 The following legend is applicable only to US Government
 contracts under FAR:
  
                    RESTRICTED RIGHTS LEGEND
  
 Use, reproduction and disclosure by the US Government is
 subject to restrictions as set forth in subparagraphs (a)
 and (c) of the Commercial Computer Software - Restricted
 Rights clause in FAR 52.227-19.
  
 Gaussian, Inc.
 340 Quinnipiac St., Bldg. 40, Wallingford CT 06492
  
  
 ---------------------------------------------------------------
 Warning -- This program may not be used in any manner that
 competes with the business of Gaussian, Inc. or will provide
 assistance to any competitor of Gaussian, Inc.  The licensee
 of this program is prohibited from giving any competitor of
 Gaussian, Inc. access to this program.  By using this program,
 the user acknowledges that Gaussian, Inc. is engaged in the
 business of creating and licensing software in the field of
 computational chemistry and represents and warrants to the
 licensee that it is not a competitor of Gaussian, Inc. and that
 it will not use this program in any manner prohibited above.
 ---------------------------------------------------------------
  

 Cite this work as:
 Gaussian 16, Revision A.03,
 M. J. Frisch, G. W. Trucks, H. B. Schlegel, G. E. Scuseria, 
 M. A. Robb, J. R. Cheeseman, G. Scalmani, V. Barone, 
 G. A. Petersson, H. Nakatsuji, X. Li, M. Caricato, A. V. Marenich, 
 J. Bloino, B. G. Janesko, R. Gomperts, B. Mennucci, H. P. Hratchian, 
 J. V. Ortiz, A. F. Izmaylov, J. L. Sonnenberg, D. Williams-Young, 
 F. Ding, F. Lipparini, F. Egidi, J. Goings, B. Peng, A. Petrone, 
 T. Henderson, D. Ranasinghe, V. G. Zakrzewski, J. Gao, N. Rega, 
 G. Zheng, W. Liang, M. Hada, M. Ehara, K. Toyota, R. Fukuda, 
 J. Hasegawa, M. Ishida, T. Nakajima, Y. Honda, O. Kitao, H. Nakai, 
 T. Vreven, K. Throssell, J. A. Montgomery, Jr., J. E. Peralta, 
 F. Ogliaro, M. J. Bearpark, J. J. Heyd, E. N. Brothers, K. N. Kudin, 
 V. N. Staroverov, T. A. Keith, R. Kobayashi, J. Normand, 
 K. Raghavachari, A. P. Rendell, J. C. Burant, S. S. Iyengar, 
 J. Tomasi, M. Cossi, J. M. Millam, M. Klene, C. Adamo, R. Cammi, 
 J. W. Ochterski, R. L. Martin, K. Morokuma, O. Farkas, 
 J. B. Foresman, and D. J. Fox, Gaussian, Inc., Wallingford CT, 2016.
 
 ******************************************
 Gaussian 16:  ES64L-G16RevA.03 25-Dec-2016
                22-Sep-2023 
 ******************************************
 %nprocshared=2
 Will use up to    2 processors via shared memory.
 %mem=2GB
 ----------------
 # 6-31g(d) wb97x
 ----------------
 1/38=1,172=1/1;
 2/12=2,17=6,18=5,40=1/2;
 3/5=1,6=6,7=1,11=2,25=1,30=1,74=-57/1,2,3;
 4//1;
 5/5=2,38=5/2;
 6/7=2,8=2,9=2,10=2,28=1/1;
 99/5=1,9=1/99;
 -----------------------
 tmpdir/M2_conf_1_70.gjf
 -----------------------
 Symbolic Z-matrix:
 Charge =  0 Multiplicity = 1
 O                     0.        0.        0. 
 C                     1.4324    0.        0. 
 C                     2.02544   0.        1.41148 
 H                    -0.43657   0.82559   0.28831 
 H                     1.74277  -0.87368  -0.60024 
 H                     1.77007   0.91828  -0.51658 
 H                     1.72966  -0.86693   2.03058 
 H                     1.74043   0.93055   1.91575 
 H                     3.11813   0.03823   1.30743 
 
                          Input orientation:                          
 ---------------------------------------------------------------------
 Center     Atomic      Atomic             Coordinates (Angstroms)
 Number     Number       Type             X           Y           Z
 ---------------------------------------------------------------------
      1          8           0        0.000000    0.000000    0.000000
      2          6           0        1.432400    0.000000    0.000000
      3          6           0        2.025440    0.000000    1.411480
      4          1           0       -0.436570    0.825590    0.288310
      5          1           0        1.742770   -0.873680   -0.600240
      6          1           0        1.770070    0.918280   -0.516580
      7          1           0        1.729660   -0.866930    2.030580
      8          1           0        1.740430    0.930550    1.915750
      9          1           0        3.118130    0.038230    1.307430
 ---------------------------------------------------------------------
                    Distance matrix (angstroms):
                    1          2          3          4          5
     1  O    0.000000
     2  C    1.432400   0.000000
     3  C    2.468741   1.531004   0.000000
     4  H    0.977402   2.063437   2.829241   0.000000
     5  H    2.039817   1.104506   2.211388   2.902854   0.000000
     6  H    2.059913   1.106397   2.150783   2.350681   1.794120
     7  H    2.804736   2.227821   1.105594   3.254640   2.630861
     8  H    2.750476   2.151953   1.096103   2.720093   3.096039
     9  H    3.381356   2.133664   1.098298   3.780798   2.522380
                    6          7          8          9
     6  H    0.000000
     7  H    3.110728   0.000000
     8  H    2.432542   1.801176   0.000000
     9  H    2.432851   1.808344   1.750527   0.000000
 Stoichiometry    C2H6O
 Framework group  C1[X(C2H6O)]
 Deg. of freedom    21
 Full point group                 C1      NOp   1
 Largest Abelian subgroup         C1      NOp   1
 Largest concise Abelian subgroup C1      NOp   1
                         Standard orientation:                         
 ---------------------------------------------------------------------
 Center     Atomic      Atomic             Coordinates (Angstroms)
 Number     Number       Type             X           Y           Z
 ---------------------------------------------------------------------
      1          8           0       -1.239218   -0.256687   -0.118032
      2          6           0       -0.070179    0.557074    0.033329
      3          6           0        1.227777   -0.252772   -0.025264
      4          1           0       -1.459845   -0.847139    0.628966
      5          1           0       -0.130646    1.335560   -0.747848
      6          1           0       -0.126504    1.048263    1.023115
      7          1           0        1.375508   -0.810185   -0.968559
      8          1           0        1.251492   -0.946333    0.823177
      9          1           0        2.058147    0.447522    0.137012
 ---------------------------------------------------------------------
 Rotational constants (GHZ):          34.1295700           8.9709691           7.9670302
 Standard basis: 6-31G(d) (6D, 7F)
 There are    57 symmetry adapted cartesian basis functions of A   symmetry.
 There are    57 symmetry adapted basis functions of A   symmetry.
    57 basis functions,   108 primitive gaussians,    57 cartesian basis functions
    13 alpha electrons       13 beta electrons
       nuclear repulsion energy        80.8677560006 Hartrees.
 NAtoms=    9 NActive=    9 NUniq=    9 SFac= 1.00D+00 NAtFMM=   60 NAOKFM=F Big=F
 Integral buffers will be    131072 words long.
 Raffenetti 2 integral format.
 Two-electron integral symmetry is turned on.
 One-electron integrals computed using PRISM.
 NBasis=    57 RedAO= T EigKep=  6.19D-03  NBF=    57
 NBsUse=    57 1.00D-06 EigRej= -1.00D+00 NBFU=    57
 ExpMin= 1.61D-01 ExpMax= 5.48D+03 ExpMxC= 8.25D+02 IAcc=3 IRadAn=         5 AccDes= 0.00D+00
 Harris functional with IExCor= 4538 and IRadAn=       5 diagonalized for initial guess.
 HarFok:  IExCor= 4538 AccDes= 0.00D+00 IRadAn=         5 IDoV= 1 UseB2=F ITyADJ=14
 ICtDFT=  3500011 ScaDFX=  1.000000  1.000000  1.000000  1.000000
 FoFCou: FMM=F IPFlag=           0 FMFlag=      100000 FMFlg1=           0
         NFxFlg=           0 DoJE=T BraDBF=F KetDBF=T FulRan=T
         wScrn=  0.000000 ICntrl=       500 IOpCl=  0 I1Cent=   200000004 NGrid=           0
         NMat0=    1 NMatS0=      1 NMatT0=    0 NMatD0=    1 NMtDS0=    0 NMtDT0=    0
 Petite list used in FoFCou.
 Keep R1 ints in memory in canonical form, NReq=4494208.
 Requested convergence on RMS density matrix=1.00D-08 within 128 cycles.
 Requested convergence on MAX density matrix=1.00D-06.
 Requested convergence on             energy=1.00D-06.
 No special actions if energy rises.
 Integral accuracy reduced to 1.0D-05 until final iterations.
 Initial convergence to 1.0D-05 achieved.  Increase integral accuracy.
 SCF Done:  E(RwB97X) =  -154.985521309     A.U. after   13 cycles
            NFock= 13  Conv=0.27D-08     -V/T= 2.0099

 **********************************************************************

            Population analysis using the SCF density.

 **********************************************************************

 Orbital symmetries:
       Occupied  (A) (A) (A) (A) (A) (A) (A) (A) (A) (A) (A) (A)
                 (A)
       Virtual   (A) (A) (A) (A) (A) (A) (A) (A) (A) (A) (A) (A)
                 (A) (A) (A) (A) (A) (A) (A) (A) (A) (A) (A) (A)
                 (A) (A) (A) (A) (A) (A) (A) (A) (A) (A) (A) (A)
                 (A) (A) (A) (A) (A) (A) (A) (A)
 The electronic state is 1-A.
 Alpha  occ. eigenvalues --  -19.19878 -10.31525 -10.26023  -1.12269  -0.87115
 Alpha  occ. eigenvalues --   -0.74034  -0.60819  -0.56024  -0.52316  -0.48802
 Alpha  occ. eigenvalues --   -0.46737  -0.40985  -0.36163
 Alpha virt. eigenvalues --    0.17420   0.21600   0.24437   0.25549   0.26750
 Alpha virt. eigenvalues --    0.29056   0.32307   0.34293   0.63674   0.65433
 Alpha virt. eigenvalues --    0.67793   0.68496   0.76583   0.79009   0.92043
 Alpha virt. eigenvalues --    0.97546   0.99128   1.01143   1.01976   1.06327
 Alpha virt. eigenvalues --    1.09972   1.13330   1.13852   1.28686   1.44906
 Alpha virt. eigenvalues --    1.54967   1.66030   1.69118   1.86275   1.91225
 Alpha virt. eigenvalues --    2.01138   2.04945   2.18779   2.22350   2.33657
 Alpha virt. eigenvalues --    2.38371   2.44005   2.52238   2.65187   2.74204
 Alpha virt. eigenvalues --    2.93085   3.84738   4.29508   4.51951
          Condensed to atoms (all electrons):
               1          2          3          4          5          6
     1  O    8.267664   0.255292  -0.052243   0.244806  -0.036984  -0.037113
     2  C    0.255292   4.761304   0.350974  -0.021697   0.395488   0.381640
     3  C   -0.052243   0.350974   5.167922  -0.002085  -0.043297  -0.052333
     4  H    0.244806  -0.021697  -0.002085   0.378891   0.005292  -0.006294
     5  H   -0.036984   0.395488  -0.043297   0.005292   0.551428  -0.037015
     6  H   -0.037113   0.381640  -0.052333  -0.006294  -0.037015   0.621040
     7  H    0.001611  -0.026161   0.380410  -0.000406  -0.003724   0.004515
     8  H   -0.000651  -0.031773   0.378890   0.002890   0.004263  -0.006138
     9  H    0.003428  -0.026988   0.353878  -0.000080  -0.000105   0.001153
               7          8          9
     1  O    0.001611  -0.000651   0.003428
     2  C   -0.026161  -0.031773  -0.026988
     3  C    0.380410   0.378890   0.353878
     4  H   -0.000406   0.002890  -0.000080
     5  H   -0.003724   0.004263  -0.000105
     6  H    0.004515  -0.006138   0.001153
     7  H    0.520509  -0.026947  -0.021925
     8  H   -0.026947   0.558913  -0.028229
     9  H   -0.021925  -0.028229   0.567645
 Mulliken charges:
               1
     1  O   -0.645809
     2  C   -0.038079
     3  C   -0.482117
     4  H    0.398685
     5  H    0.164653
     6  H    0.130545
     7  H    0.172117
     8  H    0.148782
     9  H    0.151224
 Sum of Mulliken charges =  -0.00000
 Mulliken charges with hydrogens summed into heavy atoms:
               1
     1  O   -0.247125
     2  C    0.257119
     3  C   -0.009994
 Electronic spatial extent (au):  <R**2>=            197.4283
 Charge=             -0.0000 electrons
 Dipole moment (field-independent basis, Debye):
    X=              0.9066    Y=             -0.1366    Z=              1.3816  Tot=              1.6581
 Quadrupole moment (field-independent basis, Debye-Ang):
   XX=            -21.2328   YY=            -18.4774   ZZ=            -18.8153
   XY=              1.2629   XZ=             -2.3118   YZ=             -1.4390
 Traceless Quadrupole moment (field-independent basis, Debye-Ang):
   XX=             -1.7243   YY=              1.0311   ZZ=              0.6932
   XY=              1.2629   XZ=             -2.3118   YZ=             -1.4390
 Octapole moment (field-independent basis, Debye-Ang**2):
  XXX=             -4.7046  YYY=             -1.8305  ZZZ=              0.5743  XYY=             -3.4138
  XXY=             -2.4516  XXZ=              3.4233  XZZ=             -2.5593  YZZ=             -1.0968
  YYZ=              0.6403  XYZ=              2.1884
 Hexadecapole moment (field-independent basis, Debye-Ang**3):
 XXXX=           -161.2989 YYYY=            -54.1165 ZZZZ=            -33.1154 XXXY=              8.8771
 XXXZ=             -5.3339 YYYX=              4.1341 YYYZ=             -2.4892 ZZZX=             -2.0244
 ZZZY=             -1.0147 XXYY=            -32.5892 XXZZ=            -30.9169 YYZZ=            -12.9445
 XXYZ=             -2.3597 YYXZ=             -1.6432 ZZXY=              0.5958
 N-N= 8.086775600059D+01 E-N=-5.234663333155D+02  KE= 1.534671762807D+02
 1\1\GINC-NODE67\SP\RwB97X\6-31G(d)\C2H6O1\YANZ\22-Sep-2023\0\\# 6-31g(
 d) wb97x\\tmpdir/M2_conf_1_70.gjf\\0,1\O,0,0.,0.,0.\C,0,1.4324,0.,0.\C
 ,0,2.02544,0.,1.41148\H,0,-0.43657,0.82559,0.28831\H,0,1.74277,-0.8736
 8,-0.60024\H,0,1.77007,0.91828,-0.51658\H,0,1.72966,-0.86693,2.03058\H
 ,0,1.74043,0.93055,1.91575\H,0,3.11813,0.03823,1.30743\\Version=ES64L-
 G16RevA.03\State=1-A\HF=-154.9855213\RMSD=2.719e-09\Dipole=0.3179851,0
 .5323271,0.202659\Quadrupole=-0.154943,0.9302747,-0.7753317,-2.054792,
 -1.1170014,-0.1158927\PG=C01 [X(C2H6O1)]\\@


 The most important thing in communication is to hear what isn't being said.
 -- Peter F. Drucker
 Job cpu time:       0 days  0 hours  0 minutes 15.9 seconds.
 Elapsed time:       0 days  0 hours  0 minutes  8.0 seconds.
 File lengths (MBytes):  RWF=      6 Int=      0 D2E=      0 Chk=      1 Scr=      1
 Normal termination of Gaussian 16 at Fri Sep 22 16:31:52 2023.
