 Entering Gaussian System, Link 0=g16
 Initial command:
 /share/apps/gaussian/g16/l1.exe "/tmp/55568.mgr/Gau-358261.inp" -scrdir="/tmp/55568.mgr/"
 Entering Link 1 = /share/apps/gaussian/g16/l1.exe PID=    358262.
  
 Copyright (c) 1988,1990,1992,1993,1995,1998,2003,2009,2016,
            Gaussian, Inc.  All Rights Reserved.
  
 This is part of the Gaussian(R) 16 program.  It is based on
 the Gaussian(R) 09 system (copyright 2009, Gaussian, Inc.),
 the Gaussian(R) 03 system (copyright 2003, Gaussian, Inc.),
 the Gaussian(R) 98 system (copyright 1998, Gaussian, Inc.),
 the Gaussian(R) 94 system (copyright 1995, Gaussian, Inc.),
 the Gaussian 92(TM) system (copyright 1992, Gaussian, Inc.),
 the Gaussian 90(TM) system (copyright 1990, Gaussian, Inc.),
 the Gaussian 88(TM) system (copyright 1988, Gaussian, Inc.),
 the Gaussian 86(TM) system (copyright 1986, Carnegie Mellon
 University), and the Gaussian 82(TM) system (copyright 1983,
 Carnegie Mellon University). Gaussian is a federally registered
 trademark of Gaussian, Inc.
  
 This software contains proprietary and confidential information,
 including trade secrets, belonging to Gaussian, Inc.
  
 This software is provided under written license and may be
 used, copied, transmitted, or stored only in accord with that
 written license.
  
 The following legend is applicable only to US Government
 contracts under FAR:
  
                    RESTRICTED RIGHTS LEGEND
  
 Use, reproduction and disclosure by the US Government is
 subject to restrictions as set forth in subparagraphs (a)
 and (c) of the Commercial Computer Software - Restricted
 Rights clause in FAR 52.227-19.
  
 Gaussian, Inc.
 340 Quinnipiac St., Bldg. 40, Wallingford CT 06492
  
  
 ---------------------------------------------------------------
 Warning -- This program may not be used in any manner that
 competes with the business of Gaussian, Inc. or will provide
 assistance to any competitor of Gaussian, Inc.  The licensee
 of this program is prohibited from giving any competitor of
 Gaussian, Inc. access to this program.  By using this program,
 the user acknowledges that Gaussian, Inc. is engaged in the
 business of creating and licensing software in the field of
 computational chemistry and represents and warrants to the
 licensee that it is not a competitor of Gaussian, Inc. and that
 it will not use this program in any manner prohibited above.
 ---------------------------------------------------------------
  

 Cite this work as:
 Gaussian 16, Revision A.03,
 M. J. Frisch, G. W. Trucks, H. B. Schlegel, G. E. Scuseria, 
 M. A. Robb, J. R. Cheeseman, G. Scalmani, V. Barone, 
 G. A. Petersson, H. Nakatsuji, X. Li, M. Caricato, A. V. Marenich, 
 J. Bloino, B. G. Janesko, R. Gomperts, B. Mennucci, H. P. Hratchian, 
 J. V. Ortiz, A. F. Izmaylov, J. L. Sonnenberg, D. Williams-Young, 
 F. Ding, F. Lipparini, F. Egidi, J. Goings, B. Peng, A. Petrone, 
 T. Henderson, D. Ranasinghe, V. G. Zakrzewski, J. Gao, N. Rega, 
 G. Zheng, W. Liang, M. Hada, M. Ehara, K. Toyota, R. Fukuda, 
 J. Hasegawa, M. Ishida, T. Nakajima, Y. Honda, O. Kitao, H. Nakai, 
 T. Vreven, K. Throssell, J. A. Montgomery, Jr., J. E. Peralta, 
 F. Ogliaro, M. J. Bearpark, J. J. Heyd, E. N. Brothers, K. N. Kudin, 
 V. N. Staroverov, T. A. Keith, R. Kobayashi, J. Normand, 
 K. Raghavachari, A. P. Rendell, J. C. Burant, S. S. Iyengar, 
 J. Tomasi, M. Cossi, J. M. Millam, M. Klene, C. Adamo, R. Cammi, 
 J. W. Ochterski, R. L. Martin, K. Morokuma, O. Farkas, 
 J. B. Foresman, and D. J. Fox, Gaussian, Inc., Wallingford CT, 2016.
 
 ******************************************
 Gaussian 16:  ES64L-G16RevA.03 25-Dec-2016
                22-Sep-2023 
 ******************************************
 %nprocshared=2
 Will use up to    2 processors via shared memory.
 %mem=2GB
 ----------------
 # 6-31g(d) wb97x
 ----------------
 1/38=1,172=1/1;
 2/12=2,17=6,18=5,40=1/2;
 3/5=1,6=6,7=1,11=2,25=1,30=1,74=-57/1,2,3;
 4//1;
 5/5=2,38=5/2;
 6/7=2,8=2,9=2,10=2,28=1/1;
 99/5=1,9=1/99;
 -----------------------
 tmpdir/M2_conf_2_51.gjf
 -----------------------
 Symbolic Z-matrix:
 Charge =  0 Multiplicity = 1
 C                     0.        0.        0. 
 N                     1.3413    0.        0. 
 H                     1.82537   0.        0.89191 
 O                    -0.71784   0.09831  -1.01171 
 H                    -0.47999  -0.11446   0.97438 
 H                     2.04938   0.16871  -0.72845 
 
                          Input orientation:                          
 ---------------------------------------------------------------------
 Center     Atomic      Atomic             Coordinates (Angstroms)
 Number     Number       Type             X           Y           Z
 ---------------------------------------------------------------------
      1          6           0        0.000000    0.000000    0.000000
      2          7           0        1.341300    0.000000    0.000000
      3          1           0        1.825370    0.000000    0.891910
      4          8           0       -0.717840    0.098310   -1.011710
      5          1           0       -0.479990   -0.114460    0.974380
      6          1           0        2.049380    0.168710   -0.728450
 ---------------------------------------------------------------------
                    Distance matrix (angstroms):
                    1          2          3          4          5
     1  C    0.000000
     2  N    1.341300   0.000000
     3  H    2.031620   1.014804   0.000000
     4  O    1.244394   2.296362   3.178262   0.000000
     5  H    1.092203   2.068723   2.309673   2.011566   0.000000
     6  H    2.181527   1.029796   1.644448   2.782571   3.062275
                    6
     6  H    0.000000
 Stoichiometry    CH3NO
 Framework group  C1[X(CH3NO)]
 Deg. of freedom    12
 Full point group                 C1      NOp   1
 Largest Abelian subgroup         C1      NOp   1
 Largest concise Abelian subgroup C1      NOp   1
                         Standard orientation:                         
 ---------------------------------------------------------------------
 Center     Atomic      Atomic             Coordinates (Angstroms)
 Number     Number       Type             X           Y           Z
 ---------------------------------------------------------------------
      1          6           0        0.151810    0.385030    0.002168
      2          7           0       -1.076859   -0.152420   -0.022473
      3          1           0       -1.877229    0.465182    0.065861
      4          8           0        1.216916   -0.258450    0.002777
      5          1           0        0.198454    1.476236    0.003444
      6          1           0       -1.429400   -1.117060    0.052787
 ---------------------------------------------------------------------
 Rotational constants (GHZ):          74.1047078          11.0636467           9.6312500
 Standard basis: 6-31G(d) (6D, 7F)
 There are    51 symmetry adapted cartesian basis functions of A   symmetry.
 There are    51 symmetry adapted basis functions of A   symmetry.
    51 basis functions,    96 primitive gaussians,    51 cartesian basis functions
    12 alpha electrons       12 beta electrons
       nuclear repulsion energy        70.5315400462 Hartrees.
 NAtoms=    6 NActive=    6 NUniq=    6 SFac= 1.00D+00 NAtFMM=   60 NAOKFM=F Big=F
 Integral buffers will be    131072 words long.
 Raffenetti 2 integral format.
 Two-electron integral symmetry is turned on.
 One-electron integrals computed using PRISM.
 NBasis=    51 RedAO= T EigKep=  5.89D-03  NBF=    51
 NBsUse=    51 1.00D-06 EigRej= -1.00D+00 NBFU=    51
 ExpMin= 1.61D-01 ExpMax= 5.48D+03 ExpMxC= 8.25D+02 IAcc=3 IRadAn=         5 AccDes= 0.00D+00
 Harris functional with IExCor= 4538 and IRadAn=       5 diagonalized for initial guess.
 HarFok:  IExCor= 4538 AccDes= 0.00D+00 IRadAn=         5 IDoV= 1 UseB2=F ITyADJ=14
 ICtDFT=  3500011 ScaDFX=  1.000000  1.000000  1.000000  1.000000
 FoFCou: FMM=F IPFlag=           0 FMFlag=      100000 FMFlg1=           0
         NFxFlg=           0 DoJE=T BraDBF=F KetDBF=T FulRan=T
         wScrn=  0.000000 ICntrl=       500 IOpCl=  0 I1Cent=   200000004 NGrid=           0
         NMat0=    1 NMatS0=      1 NMatT0=    0 NMatD0=    1 NMtDS0=    0 NMtDT0=    0
 Petite list used in FoFCou.
 Keep R1 ints in memory in canonical form, NReq=3503041.
 Requested convergence on RMS density matrix=1.00D-08 within 128 cycles.
 Requested convergence on MAX density matrix=1.00D-06.
 Requested convergence on             energy=1.00D-06.
 No special actions if energy rises.
 Integral accuracy reduced to 1.0D-05 until final iterations.
 Initial convergence to 1.0D-05 achieved.  Increase integral accuracy.
 SCF Done:  E(RwB97X) =  -169.834673035     A.U. after   16 cycles
            NFock= 16  Conv=0.61D-08     -V/T= 2.0095

 **********************************************************************

            Population analysis using the SCF density.

 **********************************************************************

 Orbital symmetries:
       Occupied  (A) (A) (A) (A) (A) (A) (A) (A) (A) (A) (A) (A)
       Virtual   (A) (A) (A) (A) (A) (A) (A) (A) (A) (A) (A) (A)
                 (A) (A) (A) (A) (A) (A) (A) (A) (A) (A) (A) (A)
                 (A) (A) (A) (A) (A) (A) (A) (A) (A) (A) (A) (A)
                 (A) (A) (A)
 The electronic state is 1-A.
 Alpha  occ. eigenvalues --  -19.17519 -14.44863 -10.37559  -1.14109  -1.03815
 Alpha  occ. eigenvalues --   -0.75874  -0.65834  -0.59711  -0.51011  -0.50314
 Alpha  occ. eigenvalues --   -0.36905  -0.34940
 Alpha virt. eigenvalues --    0.12372   0.16975   0.19369   0.27410   0.36792
 Alpha virt. eigenvalues --    0.45780   0.64314   0.64449   0.74656   0.77702
 Alpha virt. eigenvalues --    0.81968   0.85668   0.95243   0.98024   0.98821
 Alpha virt. eigenvalues --    1.00339   1.12750   1.18948   1.32467   1.34217
 Alpha virt. eigenvalues --    1.47858   1.57610   1.61472   1.80148   1.89959
 Alpha virt. eigenvalues --    1.96723   1.97937   2.08375   2.18788   2.37975
 Alpha virt. eigenvalues --    2.41560   2.60031   2.72616   2.76306   3.00741
 Alpha virt. eigenvalues --    3.15629   3.85629   3.94686   4.30568
          Condensed to atoms (all electrons):
               1          2          3          4          5          6
     1  C    4.457497   0.222401  -0.008349   0.596621   0.389219  -0.002893
     2  N    0.222401   7.096003   0.302091  -0.087591  -0.111889   0.308296
     3  H   -0.008349   0.302091   0.383391   0.002774   0.003028  -0.025842
     4  O    0.596621  -0.087591   0.002774   8.008133  -0.053562   0.001894
     5  H    0.389219  -0.111889   0.003028  -0.053562   0.630124   0.003898
     6  H   -0.002893   0.308296  -0.025842   0.001894   0.003898   0.344660
 Mulliken charges:
               1
     1  C    0.345504
     2  N   -0.729311
     3  H    0.342907
     4  O   -0.468269
     5  H    0.139182
     6  H    0.369987
 Sum of Mulliken charges =  -0.00000
 Mulliken charges with hydrogens summed into heavy atoms:
               1
     1  C    0.484686
     2  N   -0.016417
     4  O   -0.468269
 Electronic spatial extent (au):  <R**2>=            147.8307
 Charge=             -0.0000 electrons
 Dipole moment (field-independent basis, Debye):
    X=             -4.2388    Y=              0.9340    Z=              0.2813  Tot=              4.3496
 Quadrupole moment (field-independent basis, Debye-Ang):
   XX=            -16.8273   YY=            -14.8834   ZZ=            -18.4676
   XY=              1.7249   XZ=             -0.5074   YZ=             -0.0721
 Traceless Quadrupole moment (field-independent basis, Debye-Ang):
   XX=             -0.1012   YY=              1.8427   ZZ=             -1.7415
   XY=              1.7249   XZ=             -0.5074   YZ=             -0.0721
 Octapole moment (field-independent basis, Debye-Ang**2):
  XXX=            -13.9634  YYY=             -1.7981  ZZZ=              0.2533  XYY=             -3.2245
  XXY=             -0.4029  XXZ=              0.8483  XZZ=              1.3665  YZZ=             -0.2606
  YYZ=              0.2140  XYZ=              0.0896
 Hexadecapole moment (field-independent basis, Debye-Ang**3):
 XXXX=           -106.5384 YYYY=            -31.3434 ZZZZ=            -15.6624 XXXY=              0.4946
 XXXZ=             -1.6515 YYYX=              4.0015 YYYZ=             -0.1860 ZZZX=             -0.3911
 ZZZY=             -0.0615 XXYY=            -20.8979 XXZZ=            -24.0227 YYZZ=             -8.7936
 XXYZ=             -0.0872 YYXZ=             -0.3443 ZZXY=             -0.2249
 N-N= 7.053154004623D+01 E-N=-5.388265534845D+02  KE= 1.682326551827D+02
 1\1\GINC-NODE67\SP\RwB97X\6-31G(d)\C1H3N1O1\YANZ\22-Sep-2023\0\\# 6-31
 g(d) wb97x\\tmpdir/M2_conf_2_51.gjf\\0,1\C,0,0.,0.,0.\N,0,1.3413,0.,0.
 \H,0,1.82537,0.,0.89191\O,0,-0.71784,0.09831,-1.01171\H,0,-0.47999,-0.
 11446,0.97438\H,0,2.04938,0.16871,-0.72845\\Version=ES64L-G16RevA.03\S
 tate=1-A\HF=-169.834673\RMSD=6.126e-09\Dipole=1.3783455,0.0256369,1.01
 38445\Quadrupole=1.0843103,-1.2794554,0.1951451,0.5613121,-1.3496196,-
 0.0855368\PG=C01 [X(C1H3N1O1)]\\@


 "PERFECTION IS NOT AN ACCIDENT"
         --  EAGLE ELECTRIC MANUFACTURING CO.,INC. NY
 Job cpu time:       0 days  0 hours  0 minutes 11.3 seconds.
 Elapsed time:       0 days  0 hours  0 minutes  5.8 seconds.
 File lengths (MBytes):  RWF=      6 Int=      0 D2E=      0 Chk=      1 Scr=      1
 Normal termination of Gaussian 16 at Fri Sep 22 16:32:45 2023.
