 Entering Gaussian System, Link 0=g16
 Initial command:
 /share/apps/gaussian/g16/l1.exe "/tmp/55568.mgr/Gau-358405.inp" -scrdir="/tmp/55568.mgr/"
 Entering Link 1 = /share/apps/gaussian/g16/l1.exe PID=    358406.
  
 Copyright (c) 1988,1990,1992,1993,1995,1998,2003,2009,2016,
            Gaussian, Inc.  All Rights Reserved.
  
 This is part of the Gaussian(R) 16 program.  It is based on
 the Gaussian(R) 09 system (copyright 2009, Gaussian, Inc.),
 the Gaussian(R) 03 system (copyright 2003, Gaussian, Inc.),
 the Gaussian(R) 98 system (copyright 1998, Gaussian, Inc.),
 the Gaussian(R) 94 system (copyright 1995, Gaussian, Inc.),
 the Gaussian 92(TM) system (copyright 1992, Gaussian, Inc.),
 the Gaussian 90(TM) system (copyright 1990, Gaussian, Inc.),
 the Gaussian 88(TM) system (copyright 1988, Gaussian, Inc.),
 the Gaussian 86(TM) system (copyright 1986, Carnegie Mellon
 University), and the Gaussian 82(TM) system (copyright 1983,
 Carnegie Mellon University). Gaussian is a federally registered
 trademark of Gaussian, Inc.
  
 This software contains proprietary and confidential information,
 including trade secrets, belonging to Gaussian, Inc.
  
 This software is provided under written license and may be
 used, copied, transmitted, or stored only in accord with that
 written license.
  
 The following legend is applicable only to US Government
 contracts under FAR:
  
                    RESTRICTED RIGHTS LEGEND
  
 Use, reproduction and disclosure by the US Government is
 subject to restrictions as set forth in subparagraphs (a)
 and (c) of the Commercial Computer Software - Restricted
 Rights clause in FAR 52.227-19.
  
 Gaussian, Inc.
 340 Quinnipiac St., Bldg. 40, Wallingford CT 06492
  
  
 ---------------------------------------------------------------
 Warning -- This program may not be used in any manner that
 competes with the business of Gaussian, Inc. or will provide
 assistance to any competitor of Gaussian, Inc.  The licensee
 of this program is prohibited from giving any competitor of
 Gaussian, Inc. access to this program.  By using this program,
 the user acknowledges that Gaussian, Inc. is engaged in the
 business of creating and licensing software in the field of
 computational chemistry and represents and warrants to the
 licensee that it is not a competitor of Gaussian, Inc. and that
 it will not use this program in any manner prohibited above.
 ---------------------------------------------------------------
  

 Cite this work as:
 Gaussian 16, Revision A.03,
 M. J. Frisch, G. W. Trucks, H. B. Schlegel, G. E. Scuseria, 
 M. A. Robb, J. R. Cheeseman, G. Scalmani, V. Barone, 
 G. A. Petersson, H. Nakatsuji, X. Li, M. Caricato, A. V. Marenich, 
 J. Bloino, B. G. Janesko, R. Gomperts, B. Mennucci, H. P. Hratchian, 
 J. V. Ortiz, A. F. Izmaylov, J. L. Sonnenberg, D. Williams-Young, 
 F. Ding, F. Lipparini, F. Egidi, J. Goings, B. Peng, A. Petrone, 
 T. Henderson, D. Ranasinghe, V. G. Zakrzewski, J. Gao, N. Rega, 
 G. Zheng, W. Liang, M. Hada, M. Ehara, K. Toyota, R. Fukuda, 
 J. Hasegawa, M. Ishida, T. Nakajima, Y. Honda, O. Kitao, H. Nakai, 
 T. Vreven, K. Throssell, J. A. Montgomery, Jr., J. E. Peralta, 
 F. Ogliaro, M. J. Bearpark, J. J. Heyd, E. N. Brothers, K. N. Kudin, 
 V. N. Staroverov, T. A. Keith, R. Kobayashi, J. Normand, 
 K. Raghavachari, A. P. Rendell, J. C. Burant, S. S. Iyengar, 
 J. Tomasi, M. Cossi, J. M. Millam, M. Klene, C. Adamo, R. Cammi, 
 J. W. Ochterski, R. L. Martin, K. Morokuma, O. Farkas, 
 J. B. Foresman, and D. J. Fox, Gaussian, Inc., Wallingford CT, 2016.
 
 ******************************************
 Gaussian 16:  ES64L-G16RevA.03 25-Dec-2016
                22-Sep-2023 
 ******************************************
 %nprocshared=2
 Will use up to    2 processors via shared memory.
 %mem=2GB
 ----------------
 # 6-31g(d) wb97x
 ----------------
 1/38=1,172=1/1;
 2/12=2,17=6,18=5,40=1/2;
 3/5=1,6=6,7=1,11=2,25=1,30=1,74=-57/1,2,3;
 4//1;
 5/5=2,38=5/2;
 6/7=2,8=2,9=2,10=2,28=1/1;
 99/5=1,9=1/99;
 -----------------------
 tmpdir/M2_conf_2_52.gjf
 -----------------------
 Symbolic Z-matrix:
 Charge =  0 Multiplicity = 1
 C                     0.        0.        0. 
 C                     1.4901    0.        0. 
 H                    -0.41005   0.       -1.04417 
 H                    -0.48828   0.92867   0.51435 
 H                    -0.39119  -0.90612   0.49959 
 O                     2.13555  -0.39503  -0.89481 
 H                     2.03064   0.34288   0.87853 
 
                          Input orientation:                          
 ---------------------------------------------------------------------
 Center     Atomic      Atomic             Coordinates (Angstroms)
 Number     Number       Type             X           Y           Z
 ---------------------------------------------------------------------
      1          6           0        0.000000    0.000000    0.000000
      2          6           0        1.490100    0.000000    0.000000
      3          1           0       -0.410050    0.000000   -1.044170
      4          1           0       -0.488280    0.928670    0.514350
      5          1           0       -0.391190   -0.906120    0.499590
      6          8           0        2.135550   -0.395030   -0.894810
      7          1           0        2.030640    0.342880    0.878530
 ---------------------------------------------------------------------
                    Distance matrix (angstroms):
                    1          2          3          4          5
     1  C    0.000000
     2  C    1.490100   0.000000
     3  H    1.121799   2.168147   0.000000
     4  H    1.168504   2.245211   1.815911   0.000000
     5  H    1.106198   2.147067   1.790141   1.837416   0.000000
     6  O    2.348895   1.171896   2.580395   3.259202   2.930867
     7  H    2.238946   1.086998   3.125909   2.611654   2.751156
                    6          7
     6  O    0.000000
     7  H    1.923604   0.000000
 Stoichiometry    C2H4O
 Framework group  C1[X(C2H4O)]
 Deg. of freedom    15
 Full point group                 C1      NOp   1
 Largest Abelian subgroup         C1      NOp   1
 Largest concise Abelian subgroup C1      NOp   1
                         Standard orientation:                         
 ---------------------------------------------------------------------
 Center     Atomic      Atomic             Coordinates (Angstroms)
 Number     Number       Type             X           Y           Z
 ---------------------------------------------------------------------
      1          6           0       -1.145279   -0.121482    0.007901
      2          6           0        0.250272    0.400640   -0.007048
      3          1           0       -1.196964   -1.165265   -0.399872
      4          1           0       -1.902677    0.490928   -0.637624
      5          1           0       -1.537583   -0.159750    1.041490
      6          8           0        1.197591   -0.289225   -0.003516
      7          1           0        0.426532    1.472936    0.019019
 ---------------------------------------------------------------------
 Rotational constants (GHZ):          56.9046048          10.4414205           9.3673556
 Standard basis: 6-31G(d) (6D, 7F)
 There are    53 symmetry adapted cartesian basis functions of A   symmetry.
 There are    53 symmetry adapted basis functions of A   symmetry.
    53 basis functions,   100 primitive gaussians,    53 cartesian basis functions
    12 alpha electrons       12 beta electrons
       nuclear repulsion energy        70.4113472813 Hartrees.
 NAtoms=    7 NActive=    7 NUniq=    7 SFac= 1.00D+00 NAtFMM=   60 NAOKFM=F Big=F
 Integral buffers will be    131072 words long.
 Raffenetti 2 integral format.
 Two-electron integral symmetry is turned on.
 One-electron integrals computed using PRISM.
 NBasis=    53 RedAO= T EigKep=  5.38D-03  NBF=    53
 NBsUse=    53 1.00D-06 EigRej= -1.00D+00 NBFU=    53
 ExpMin= 1.61D-01 ExpMax= 5.48D+03 ExpMxC= 8.25D+02 IAcc=3 IRadAn=         5 AccDes= 0.00D+00
 Harris functional with IExCor= 4538 and IRadAn=       5 diagonalized for initial guess.
 HarFok:  IExCor= 4538 AccDes= 0.00D+00 IRadAn=         5 IDoV= 1 UseB2=F ITyADJ=14
 ICtDFT=  3500011 ScaDFX=  1.000000  1.000000  1.000000  1.000000
 FoFCou: FMM=F IPFlag=           0 FMFlag=      100000 FMFlg1=           0
         NFxFlg=           0 DoJE=T BraDBF=F KetDBF=T FulRan=T
         wScrn=  0.000000 ICntrl=       500 IOpCl=  0 I1Cent=   200000004 NGrid=           0
         NMat0=    1 NMatS0=      1 NMatT0=    0 NMatD0=    1 NMtDS0=    0 NMtDT0=    0
 Petite list used in FoFCou.
 Keep R1 ints in memory in canonical form, NReq=3800804.
 Requested convergence on RMS density matrix=1.00D-08 within 128 cycles.
 Requested convergence on MAX density matrix=1.00D-06.
 Requested convergence on             energy=1.00D-06.
 No special actions if energy rises.
 Integral accuracy reduced to 1.0D-05 until final iterations.
 Initial convergence to 1.0D-05 achieved.  Increase integral accuracy.
 SCF Done:  E(RwB97X) =  -153.777115325     A.U. after   15 cycles
            NFock= 15  Conv=0.42D-08     -V/T= 2.0085

 **********************************************************************

            Population analysis using the SCF density.

 **********************************************************************

 Orbital symmetries:
       Occupied  (A) (A) (A) (A) (A) (A) (A) (A) (A) (A) (A) (A)
       Virtual   (A) (A) (A) (A) (A) (A) (A) (A) (A) (A) (A) (A)
                 (A) (A) (A) (A) (A) (A) (A) (A) (A) (A) (A) (A)
                 (A) (A) (A) (A) (A) (A) (A) (A) (A) (A) (A) (A)
                 (A) (A) (A) (A) (A)
 The electronic state is 1-A.
 Alpha  occ. eigenvalues --  -19.21340 -10.35768 -10.28694  -1.19314  -0.87431
 Alpha  occ. eigenvalues --   -0.70072  -0.59521  -0.55705  -0.54791  -0.48898
 Alpha  occ. eigenvalues --   -0.47262  -0.35470
 Alpha virt. eigenvalues --    0.08390   0.19929   0.21968   0.25432   0.25905
 Alpha virt. eigenvalues --    0.36499   0.38485   0.63066   0.64177   0.70553
 Alpha virt. eigenvalues --    0.72228   0.79578   0.84989   0.86674   0.94179
 Alpha virt. eigenvalues --    0.97539   0.98542   1.01054   1.03664   1.10501
 Alpha virt. eigenvalues --    1.20199   1.33637   1.50907   1.59246   1.64080
 Alpha virt. eigenvalues --    1.80460   1.91339   1.93799   1.95439   2.14161
 Alpha virt. eigenvalues --    2.20945   2.26123   2.38860   2.48920   2.71083
 Alpha virt. eigenvalues --    2.74091   2.99343   3.11021   3.95212   4.19629
 Alpha virt. eigenvalues --    4.45492
          Condensed to atoms (all electrons):
               1          2          3          4          5          6
     1  C    5.394091   0.301338   0.361282   0.343822   0.361156  -0.086567
     2  C    0.301338   4.526087  -0.023280  -0.014262  -0.019578   0.611611
     3  H    0.361282  -0.023280   0.500883  -0.023265  -0.018643   0.003942
     4  H    0.343822  -0.014262  -0.023265   0.544792  -0.020293   0.002381
     5  H    0.361156  -0.019578  -0.018643  -0.020293   0.497827  -0.000306
     6  O   -0.086567   0.611611   0.003942   0.002381  -0.000306   7.888769
     7  H   -0.107173   0.370023   0.004247   0.003541   0.002763  -0.065988
               7
     1  C   -0.107173
     2  C    0.370023
     3  H    0.004247
     4  H    0.003541
     5  H    0.002763
     6  O   -0.065988
     7  H    0.674051
 Mulliken charges:
               1
     1  C   -0.567948
     2  C    0.248062
     3  H    0.194833
     4  H    0.163284
     5  H    0.197075
     6  O   -0.353842
     7  H    0.118536
 Sum of Mulliken charges =  -0.00000
 Mulliken charges with hydrogens summed into heavy atoms:
               1
     1  C   -0.012756
     2  C    0.366598
     6  O   -0.353842
 Electronic spatial extent (au):  <R**2>=            164.5845
 Charge=              0.0000 electrons
 Dipole moment (field-independent basis, Debye):
    X=             -2.2590    Y=              1.0473    Z=              0.0872  Tot=              2.4915
 Quadrupole moment (field-independent basis, Debye-Ang):
   XX=            -20.3675   YY=            -17.8700   ZZ=            -17.4928
   XY=              1.2116   XZ=             -0.0678   YZ=              0.0005
 Traceless Quadrupole moment (field-independent basis, Debye-Ang):
   XX=             -1.7907   YY=              0.7068   ZZ=              1.0839
   XY=              1.2116   XZ=             -0.0678   YZ=              0.0005
 Octapole moment (field-independent basis, Debye-Ang**2):
  XXX=             -0.0390  YYY=             -0.8198  ZZZ=              0.8721  XYY=              1.2644
  XXY=              0.6543  XXZ=             -0.0585  XZZ=              0.9448  YZZ=             -0.3671
  YYZ=             -0.4852  XYZ=              0.1929
 Hexadecapole moment (field-independent basis, Debye-Ang**3):
 XXXX=           -144.7937 YYYY=            -40.5270 ZZZZ=            -22.2537 XXXY=             -1.3408
 XXXZ=              0.4545 YYYX=              0.7511 YYYZ=              0.6822 ZZZX=             -1.4339
 ZZZY=             -0.2086 XXYY=            -30.0931 XXZZ=            -25.2103 YYZZ=            -10.8572
 XXYZ=             -0.7169 YYXZ=              0.7336 ZZXY=             -0.4949
 N-N= 7.041134728125D+01 E-N=-4.999345668643D+02  KE= 1.524808653858D+02
 1\1\GINC-NODE67\SP\RwB97X\6-31G(d)\C2H4O1\YANZ\22-Sep-2023\0\\# 6-31g(
 d) wb97x\\tmpdir/M2_conf_2_52.gjf\\0,1\C,0,0.,0.,0.\C,0,1.4901,0.,0.\H
 ,0,-0.41005,0.,-1.04417\H,0,-0.48828,0.92867,0.51435\H,0,-0.39119,-0.9
 0612,0.49959\O,0,2.13555,-0.39503,-0.89481\H,0,2.03064,0.34288,0.87853
 \\Version=ES64L-G16RevA.03\State=1-A\HF=-153.7771153\RMSD=4.230e-09\Di
 pole=-0.6883331,0.2499236,0.6516071\Quadrupole=-0.5109866,0.6114113,-0
 .1004247,0.5637893,1.160457,-0.4195424\PG=C01 [X(C2H4O1)]\\@


 IT IS BY EATING THE LIGHT OF A STAR THAT WE EXIST, 
 IN THE FINAL ANALYSIS, 
 JUST AS IT IS BY PERCEIVING THE LIGHT OF STARS
 THAT WE DEFINE THE WORLD AROUND US.

                                    -- GILBERT GROSVENOR
 Job cpu time:       0 days  0 hours  0 minutes 13.0 seconds.
 Elapsed time:       0 days  0 hours  0 minutes  6.6 seconds.
 File lengths (MBytes):  RWF=      6 Int=      0 D2E=      0 Chk=      1 Scr=      1
 Normal termination of Gaussian 16 at Fri Sep 22 16:32:51 2023.
