 Entering Gaussian System, Link 0=g16
 Initial command:
 /share/apps/gaussian/g16/l1.exe "/tmp/55568.mgr/Gau-356969.inp" -scrdir="/tmp/55568.mgr/"
 Entering Link 1 = /share/apps/gaussian/g16/l1.exe PID=    356971.
  
 Copyright (c) 1988,1990,1992,1993,1995,1998,2003,2009,2016,
            Gaussian, Inc.  All Rights Reserved.
  
 This is part of the Gaussian(R) 16 program.  It is based on
 the Gaussian(R) 09 system (copyright 2009, Gaussian, Inc.),
 the Gaussian(R) 03 system (copyright 2003, Gaussian, Inc.),
 the Gaussian(R) 98 system (copyright 1998, Gaussian, Inc.),
 the Gaussian(R) 94 system (copyright 1995, Gaussian, Inc.),
 the Gaussian 92(TM) system (copyright 1992, Gaussian, Inc.),
 the Gaussian 90(TM) system (copyright 1990, Gaussian, Inc.),
 the Gaussian 88(TM) system (copyright 1988, Gaussian, Inc.),
 the Gaussian 86(TM) system (copyright 1986, Carnegie Mellon
 University), and the Gaussian 82(TM) system (copyright 1983,
 Carnegie Mellon University). Gaussian is a federally registered
 trademark of Gaussian, Inc.
  
 This software contains proprietary and confidential information,
 including trade secrets, belonging to Gaussian, Inc.
  
 This software is provided under written license and may be
 used, copied, transmitted, or stored only in accord with that
 written license.
  
 The following legend is applicable only to US Government
 contracts under FAR:
  
                    RESTRICTED RIGHTS LEGEND
  
 Use, reproduction and disclosure by the US Government is
 subject to restrictions as set forth in subparagraphs (a)
 and (c) of the Commercial Computer Software - Restricted
 Rights clause in FAR 52.227-19.
  
 Gaussian, Inc.
 340 Quinnipiac St., Bldg. 40, Wallingford CT 06492
  
  
 ---------------------------------------------------------------
 Warning -- This program may not be used in any manner that
 competes with the business of Gaussian, Inc. or will provide
 assistance to any competitor of Gaussian, Inc.  The licensee
 of this program is prohibited from giving any competitor of
 Gaussian, Inc. access to this program.  By using this program,
 the user acknowledges that Gaussian, Inc. is engaged in the
 business of creating and licensing software in the field of
 computational chemistry and represents and warrants to the
 licensee that it is not a competitor of Gaussian, Inc. and that
 it will not use this program in any manner prohibited above.
 ---------------------------------------------------------------
  

 Cite this work as:
 Gaussian 16, Revision A.03,
 M. J. Frisch, G. W. Trucks, H. B. Schlegel, G. E. Scuseria, 
 M. A. Robb, J. R. Cheeseman, G. Scalmani, V. Barone, 
 G. A. Petersson, H. Nakatsuji, X. Li, M. Caricato, A. V. Marenich, 
 J. Bloino, B. G. Janesko, R. Gomperts, B. Mennucci, H. P. Hratchian, 
 J. V. Ortiz, A. F. Izmaylov, J. L. Sonnenberg, D. Williams-Young, 
 F. Ding, F. Lipparini, F. Egidi, J. Goings, B. Peng, A. Petrone, 
 T. Henderson, D. Ranasinghe, V. G. Zakrzewski, J. Gao, N. Rega, 
 G. Zheng, W. Liang, M. Hada, M. Ehara, K. Toyota, R. Fukuda, 
 J. Hasegawa, M. Ishida, T. Nakajima, Y. Honda, O. Kitao, H. Nakai, 
 T. Vreven, K. Throssell, J. A. Montgomery, Jr., J. E. Peralta, 
 F. Ogliaro, M. J. Bearpark, J. J. Heyd, E. N. Brothers, K. N. Kudin, 
 V. N. Staroverov, T. A. Keith, R. Kobayashi, J. Normand, 
 K. Raghavachari, A. P. Rendell, J. C. Burant, S. S. Iyengar, 
 J. Tomasi, M. Cossi, J. M. Millam, M. Klene, C. Adamo, R. Cammi, 
 J. W. Ochterski, R. L. Martin, K. Morokuma, O. Farkas, 
 J. B. Foresman, and D. J. Fox, Gaussian, Inc., Wallingford CT, 2016.
 
 ******************************************
 Gaussian 16:  ES64L-G16RevA.03 25-Dec-2016
                22-Sep-2023 
 ******************************************
 %nprocshared=2
 Will use up to    2 processors via shared memory.
 %mem=2GB
 ----------------
 # 6-31g(d) wb97x
 ----------------
 1/38=1,172=1/1;
 2/12=2,17=6,18=5,40=1/2;
 3/5=1,6=6,7=1,11=2,25=1,30=1,74=-57/1,2,3;
 4//1;
 5/5=2,38=5/2;
 6/7=2,8=2,9=2,10=2,28=1/1;
 99/5=1,9=1/99;
 -----------------------
 tmpdir/M2_conf_1_56.gjf
 -----------------------
 Symbolic Z-matrix:
 Charge =  0 Multiplicity = 1
 C                     0.        0.        0. 
 C                     1.5496    0.        0. 
 O                     2.05658   0.        1.32973 
 H                    -0.35426   0.08254  -1.04638 
 H                    -0.29666  -0.94147   0.60163 
 H                    -0.32051   0.89267   0.55715 
 H                     1.94653   0.83119  -0.57511 
 H                     1.87173  -0.96511  -0.43414 
 H                     2.87161  -0.52739   1.48928 
 
                          Input orientation:                          
 ---------------------------------------------------------------------
 Center     Atomic      Atomic             Coordinates (Angstroms)
 Number     Number       Type             X           Y           Z
 ---------------------------------------------------------------------
      1          6           0        0.000000    0.000000    0.000000
      2          6           0        1.549600    0.000000    0.000000
      3          8           0        2.056580    0.000000    1.329730
      4          1           0       -0.354260    0.082540   -1.046380
      5          1           0       -0.296660   -0.941470    0.601630
      6          1           0       -0.320510    0.892670    0.557150
      7          1           0        1.946530    0.831190   -0.575110
      8          1           0        1.871730   -0.965110   -0.434140
      9          1           0        2.871610   -0.527390    1.489280
 ---------------------------------------------------------------------
                    Distance matrix (angstroms):
                    1          2          3          4          5
     1  C    0.000000
     2  C    1.549600   0.000000
     3  O    2.449021   1.423099   0.000000
     4  H    1.107801   2.174030   3.385980   0.000000
     5  H    1.155998   2.158008   2.637088   1.941095   0.000000
     6  H    1.100001   2.145830   2.654109   1.796875   1.834834
     7  H    2.193310   1.085901   2.081202   2.464996   3.091754
     8  H    2.150183   1.106202   2.019120   2.535240   2.403184
     9  H    3.277536   2.060050   0.983804   4.148231   3.316221
                    6          7          8          9
     6  H    0.000000
     7  H    2.534810   0.000000
     8  H    3.039723   1.803375   0.000000
     9  H    3.615946   2.638791   2.211539   0.000000
 Stoichiometry    C2H6O
 Framework group  C1[X(C2H6O)]
 Deg. of freedom    21
 Full point group                 C1      NOp   1
 Largest Abelian subgroup         C1      NOp   1
 Largest concise Abelian subgroup C1      NOp   1
                         Standard orientation:                         
 ---------------------------------------------------------------------
 Center     Atomic      Atomic             Coordinates (Angstroms)
 Number     Number       Type             X           Y           Z
 ---------------------------------------------------------------------
      1          6           0        1.263660   -0.234012    0.021411
      2          6           0       -0.075875    0.544439   -0.008915
      3          8           0       -1.180263   -0.349758   -0.086030
      4          1           0        2.097577    0.494888   -0.001199
      5          1           0        1.178897   -0.934743    0.936901
      6          1           0        1.299368   -0.846156   -0.891829
      7          1           0       -0.095738    1.268892   -0.817590
      8          1           0       -0.177670    1.048662    0.970411
      9          1           0       -1.987040   -0.096041    0.416572
 ---------------------------------------------------------------------
 Rotational constants (GHZ):          35.3691675           8.9307867           7.9315711
 Standard basis: 6-31G(d) (6D, 7F)
 There are    57 symmetry adapted cartesian basis functions of A   symmetry.
 There are    57 symmetry adapted basis functions of A   symmetry.
    57 basis functions,   108 primitive gaussians,    57 cartesian basis functions
    13 alpha electrons       13 beta electrons
       nuclear repulsion energy        80.7574823493 Hartrees.
 NAtoms=    9 NActive=    9 NUniq=    9 SFac= 1.00D+00 NAtFMM=   60 NAOKFM=F Big=F
 Integral buffers will be    131072 words long.
 Raffenetti 2 integral format.
 Two-electron integral symmetry is turned on.
 One-electron integrals computed using PRISM.
 NBasis=    57 RedAO= T EigKep=  6.08D-03  NBF=    57
 NBsUse=    57 1.00D-06 EigRej= -1.00D+00 NBFU=    57
 ExpMin= 1.61D-01 ExpMax= 5.48D+03 ExpMxC= 8.25D+02 IAcc=3 IRadAn=         5 AccDes= 0.00D+00
 Harris functional with IExCor= 4538 and IRadAn=       5 diagonalized for initial guess.
 HarFok:  IExCor= 4538 AccDes= 0.00D+00 IRadAn=         5 IDoV= 1 UseB2=F ITyADJ=14
 ICtDFT=  3500011 ScaDFX=  1.000000  1.000000  1.000000  1.000000
 FoFCou: FMM=F IPFlag=           0 FMFlag=      100000 FMFlg1=           0
         NFxFlg=           0 DoJE=T BraDBF=F KetDBF=T FulRan=T
         wScrn=  0.000000 ICntrl=       500 IOpCl=  0 I1Cent=   200000004 NGrid=           0
         NMat0=    1 NMatS0=      1 NMatT0=    0 NMatD0=    1 NMtDS0=    0 NMtDT0=    0
 Petite list used in FoFCou.
 Keep R1 ints in memory in canonical form, NReq=4494208.
 Requested convergence on RMS density matrix=1.00D-08 within 128 cycles.
 Requested convergence on MAX density matrix=1.00D-06.
 Requested convergence on             energy=1.00D-06.
 No special actions if energy rises.
 Integral accuracy reduced to 1.0D-05 until final iterations.
 Initial convergence to 1.0D-05 achieved.  Increase integral accuracy.
 SCF Done:  E(RwB97X) =  -154.978696345     A.U. after   13 cycles
            NFock= 13  Conv=0.36D-08     -V/T= 2.0103

 **********************************************************************

            Population analysis using the SCF density.

 **********************************************************************

 Orbital symmetries:
       Occupied  (A) (A) (A) (A) (A) (A) (A) (A) (A) (A) (A) (A)
                 (A)
       Virtual   (A) (A) (A) (A) (A) (A) (A) (A) (A) (A) (A) (A)
                 (A) (A) (A) (A) (A) (A) (A) (A) (A) (A) (A) (A)
                 (A) (A) (A) (A) (A) (A) (A) (A) (A) (A) (A) (A)
                 (A) (A) (A) (A) (A) (A) (A) (A)
 The electronic state is 1-A.
 Alpha  occ. eigenvalues --  -19.19985 -10.31162 -10.26490  -1.12480  -0.86624
 Alpha  occ. eigenvalues --   -0.72566  -0.61727  -0.57340  -0.49263  -0.49016
 Alpha  occ. eigenvalues --   -0.46412  -0.40501  -0.36280
 Alpha virt. eigenvalues --    0.16958   0.21073   0.25264   0.26170   0.26996
 Alpha virt. eigenvalues --    0.29169   0.32318   0.32447   0.63525   0.66876
 Alpha virt. eigenvalues --    0.67376   0.70379   0.76961   0.78625   0.91762
 Alpha virt. eigenvalues --    0.96907   0.97598   1.01015   1.02248   1.05705
 Alpha virt. eigenvalues --    1.09195   1.12106   1.14346   1.29795   1.45132
 Alpha virt. eigenvalues --    1.54087   1.59395   1.72079   1.87041   1.94644
 Alpha virt. eigenvalues --    2.04939   2.07730   2.16735   2.26230   2.30448
 Alpha virt. eigenvalues --    2.33646   2.41898   2.53814   2.63119   2.75424
 Alpha virt. eigenvalues --    2.93487   3.84899   4.28632   4.52206
          Condensed to atoms (all electrons):
               1          2          3          4          5          6
     1  C    5.138031   0.360011  -0.054395   0.363895   0.369756   0.379234
     2  C    0.360011   4.779987   0.243438  -0.028164  -0.033650  -0.035176
     3  O   -0.054395   0.243438   8.285424   0.002642   0.004738   0.001342
     4  H    0.363895  -0.028164   0.002642   0.545862  -0.014078  -0.026497
     5  H    0.369756  -0.033650   0.004738  -0.014078   0.546148  -0.025642
     6  H    0.379234  -0.035176   0.001342  -0.026497  -0.025642   0.534471
     7  H   -0.051869   0.383575  -0.040614   0.002169   0.004961  -0.004546
     8  H   -0.041400   0.385567  -0.039221  -0.000979  -0.007385   0.005524
     9  H    0.004473  -0.019392   0.246559  -0.000173   0.000005  -0.000215
               7          8          9
     1  C   -0.051869  -0.041400   0.004473
     2  C    0.383575   0.385567  -0.019392
     3  O   -0.040614  -0.039221   0.246559
     4  H    0.002169  -0.000979  -0.000173
     5  H    0.004961  -0.007385   0.000005
     6  H   -0.004546   0.005524  -0.000215
     7  H    0.604595  -0.042301   0.001591
     8  H   -0.042301   0.624776  -0.008876
     9  H    0.001591  -0.008876   0.370898
 Mulliken charges:
               1
     1  C   -0.467735
     2  C   -0.036195
     3  O   -0.649912
     4  H    0.155322
     5  H    0.155148
     6  H    0.171505
     7  H    0.142440
     8  H    0.124296
     9  H    0.405131
 Sum of Mulliken charges =  -0.00000
 Mulliken charges with hydrogens summed into heavy atoms:
               1
     1  C    0.014240
     2  C    0.230542
     3  O   -0.244781
 Electronic spatial extent (au):  <R**2>=            197.3361
 Charge=             -0.0000 electrons
 Dipole moment (field-independent basis, Debye):
    X=             -0.2373    Y=              1.2730    Z=              0.9075  Tot=              1.5812
 Quadrupole moment (field-independent basis, Debye-Ang):
   XX=            -17.1183   YY=            -20.4664   ZZ=            -19.4502
   XY=             -0.8759   XZ=             -2.3453   YZ=             -0.3265
 Traceless Quadrupole moment (field-independent basis, Debye-Ang):
   XX=              1.8933   YY=             -1.4548   ZZ=             -0.4385
   XY=             -0.8759   XZ=             -2.3453   YZ=             -0.3265
 Octapole moment (field-independent basis, Debye-Ang**2):
  XXX=            -16.4650  YYY=             -0.6140  ZZZ=              0.2965  XYY=             -1.0145
  XXY=              1.7258  XXZ=              3.5811  XZZ=             -2.3849  YZZ=             -0.5354
  YYZ=             -0.1621  XYZ=              0.2727
 Hexadecapole moment (field-independent basis, Debye-Ang**3):
 XXXX=           -137.0576 YYYY=            -55.8004 ZZZZ=            -33.2295 XXXY=              5.1764
 XXXZ=             -9.7425 YYYX=              1.6335 YYYZ=             -0.6718 ZZZX=             -1.7392
 ZZZY=             -0.1008 XXYY=            -36.3055 XXZZ=            -32.2549 YYZZ=            -13.5221
 XXYZ=             -0.3774 YYXZ=             -0.3646 ZZXY=             -0.5191
 N-N= 8.075748234933D+01 E-N=-5.232271034063D+02  KE= 1.533953754796D+02
 1\1\GINC-NODE67\SP\RwB97X\6-31G(d)\C2H6O1\YANZ\22-Sep-2023\0\\# 6-31g(
 d) wb97x\\tmpdir/M2_conf_1_56.gjf\\0,1\C,0,0.,0.,0.\C,0,1.5496,0.,0.\O
 ,0,2.05658,0.,1.32973\H,0,-0.35426,0.08254,-1.04638\H,0,-0.29666,-0.94
 147,0.60163\H,0,-0.32051,0.89267,0.55715\H,0,1.94653,0.83119,-0.57511\
 H,0,1.87173,-0.96511,-0.43414\H,0,2.87161,-0.52739,1.48928\\Version=ES
 64L-G16RevA.03\State=1-A\HF=-154.9786963\RMSD=3.570e-09\Dipole=0.32530
 93,-0.3434839,-0.4039947\Quadrupole=1.2901656,-0.1619813,-1.1281843,-1
 .452692,0.6649883,-1.0572515\PG=C01 [X(C2H6O1)]\\@


 Where a calculator on the ENIAC is equipped with 18,000
 vacuum tubes and weighs 30 tons, computers inthe future
 may  have only 1,000 vacuum tubes and weigh only 1 1/2 tons.
              ---Popular Mechanics, March 1949
 Job cpu time:       0 days  0 hours  0 minutes 16.5 seconds.
 Elapsed time:       0 days  0 hours  0 minutes  8.3 seconds.
 File lengths (MBytes):  RWF=      6 Int=      0 D2E=      0 Chk=      1 Scr=      1
 Normal termination of Gaussian 16 at Fri Sep 22 16:31:59 2023.
