 Entering Gaussian System, Link 0=g16
 Initial command:
 /share/apps/gaussian/g16/l1.exe "/tmp/55568.mgr/Gau-354744.inp" -scrdir="/tmp/55568.mgr/"
 Entering Link 1 = /share/apps/gaussian/g16/l1.exe PID=    354745.
  
 Copyright (c) 1988,1990,1992,1993,1995,1998,2003,2009,2016,
            Gaussian, Inc.  All Rights Reserved.
  
 This is part of the Gaussian(R) 16 program.  It is based on
 the Gaussian(R) 09 system (copyright 2009, Gaussian, Inc.),
 the Gaussian(R) 03 system (copyright 2003, Gaussian, Inc.),
 the Gaussian(R) 98 system (copyright 1998, Gaussian, Inc.),
 the Gaussian(R) 94 system (copyright 1995, Gaussian, Inc.),
 the Gaussian 92(TM) system (copyright 1992, Gaussian, Inc.),
 the Gaussian 90(TM) system (copyright 1990, Gaussian, Inc.),
 the Gaussian 88(TM) system (copyright 1988, Gaussian, Inc.),
 the Gaussian 86(TM) system (copyright 1986, Carnegie Mellon
 University), and the Gaussian 82(TM) system (copyright 1983,
 Carnegie Mellon University). Gaussian is a federally registered
 trademark of Gaussian, Inc.
  
 This software contains proprietary and confidential information,
 including trade secrets, belonging to Gaussian, Inc.
  
 This software is provided under written license and may be
 used, copied, transmitted, or stored only in accord with that
 written license.
  
 The following legend is applicable only to US Government
 contracts under FAR:
  
                    RESTRICTED RIGHTS LEGEND
  
 Use, reproduction and disclosure by the US Government is
 subject to restrictions as set forth in subparagraphs (a)
 and (c) of the Commercial Computer Software - Restricted
 Rights clause in FAR 52.227-19.
  
 Gaussian, Inc.
 340 Quinnipiac St., Bldg. 40, Wallingford CT 06492
  
  
 ---------------------------------------------------------------
 Warning -- This program may not be used in any manner that
 competes with the business of Gaussian, Inc. or will provide
 assistance to any competitor of Gaussian, Inc.  The licensee
 of this program is prohibited from giving any competitor of
 Gaussian, Inc. access to this program.  By using this program,
 the user acknowledges that Gaussian, Inc. is engaged in the
 business of creating and licensing software in the field of
 computational chemistry and represents and warrants to the
 licensee that it is not a competitor of Gaussian, Inc. and that
 it will not use this program in any manner prohibited above.
 ---------------------------------------------------------------
  

 Cite this work as:
 Gaussian 16, Revision A.03,
 M. J. Frisch, G. W. Trucks, H. B. Schlegel, G. E. Scuseria, 
 M. A. Robb, J. R. Cheeseman, G. Scalmani, V. Barone, 
 G. A. Petersson, H. Nakatsuji, X. Li, M. Caricato, A. V. Marenich, 
 J. Bloino, B. G. Janesko, R. Gomperts, B. Mennucci, H. P. Hratchian, 
 J. V. Ortiz, A. F. Izmaylov, J. L. Sonnenberg, D. Williams-Young, 
 F. Ding, F. Lipparini, F. Egidi, J. Goings, B. Peng, A. Petrone, 
 T. Henderson, D. Ranasinghe, V. G. Zakrzewski, J. Gao, N. Rega, 
 G. Zheng, W. Liang, M. Hada, M. Ehara, K. Toyota, R. Fukuda, 
 J. Hasegawa, M. Ishida, T. Nakajima, Y. Honda, O. Kitao, H. Nakai, 
 T. Vreven, K. Throssell, J. A. Montgomery, Jr., J. E. Peralta, 
 F. Ogliaro, M. J. Bearpark, J. J. Heyd, E. N. Brothers, K. N. Kudin, 
 V. N. Staroverov, T. A. Keith, R. Kobayashi, J. Normand, 
 K. Raghavachari, A. P. Rendell, J. C. Burant, S. S. Iyengar, 
 J. Tomasi, M. Cossi, J. M. Millam, M. Klene, C. Adamo, R. Cammi, 
 J. W. Ochterski, R. L. Martin, K. Morokuma, O. Farkas, 
 J. B. Foresman, and D. J. Fox, Gaussian, Inc., Wallingford CT, 2016.
 
 ******************************************
 Gaussian 16:  ES64L-G16RevA.03 25-Dec-2016
                22-Sep-2023 
 ******************************************
 %nprocshared=2
 Will use up to    2 processors via shared memory.
 %mem=2GB
 ----------------
 # 6-31g(d) wb97x
 ----------------
 1/38=1,172=1/1;
 2/12=2,17=6,18=5,40=1/2;
 3/5=1,6=6,7=1,11=2,25=1,30=1,74=-57/1,2,3;
 4//1;
 5/5=2,38=5/2;
 6/7=2,8=2,9=2,10=2,28=1/1;
 99/5=1,9=1/99;
 ----------------------
 tmpdir/M2_conf_0_8.gjf
 ----------------------
 Symbolic Z-matrix:
 Charge =  0 Multiplicity = 1
 C                     0.        0.        0. 
 C                     1.555     0.        0. 
 C                     2.32464   0.        1.28598 
 O                    -0.47893  -0.02603   1.15594 
 H                    -0.43318   0.02398  -0.92192 
 O                     2.18621   0.03015  -0.98692 
 H                     3.41114  -0.16238   1.16417 
 H                     1.88007  -0.74566   1.95367 
 H                     2.14178   0.96562   1.78208 
 
                          Input orientation:                          
 ---------------------------------------------------------------------
 Center     Atomic      Atomic             Coordinates (Angstroms)
 Number     Number       Type             X           Y           Z
 ---------------------------------------------------------------------
      1          6           0        0.000000    0.000000    0.000000
      2          6           0        1.555000    0.000000    0.000000
      3          6           0        2.324640    0.000000    1.285980
      4          8           0       -0.478930   -0.026030    1.155940
      5          1           0       -0.433180    0.023980   -0.921920
      6          8           0        2.186210    0.030150   -0.986920
      7          1           0        3.411140   -0.162380    1.164170
      8          1           0        1.880070   -0.745660    1.953670
      9          1           0        2.141780    0.965620    1.782080
 ---------------------------------------------------------------------
                    Distance matrix (angstroms):
                    1          2          3          4          5
     1  C    0.000000
     2  C    1.555000   0.000000
     3  C    2.656632   1.498696   0.000000
     4  O    1.251499   2.339604   2.806705   0.000000
     5  H    1.018900   2.191659   3.532841   2.078965   0.000000
     6  O    2.398840   1.171899   2.277311   3.420230   2.620204
     7  H    3.607982   2.197024   1.105300   3.892468   4.377819
     8  H    2.812027   2.116248   1.095199   2.592127   3.769946
     9  H    2.948805   2.110105   1.100897   2.871157   3.850808
                    6          7          8          9
     6  O    0.000000
     7  H    2.482883   0.000000
     8  H    3.056579   1.818709   0.000000
     9  H    2.923087   1.807062   1.739659   0.000000
 Stoichiometry    C3H4O2
 Framework group  C1[X(C3H4O2)]
 Deg. of freedom    21
 Full point group                 C1      NOp   1
 Largest Abelian subgroup         C1      NOp   1
 Largest concise Abelian subgroup C1      NOp   1
                         Standard orientation:                         
 ---------------------------------------------------------------------
 Center     Atomic      Atomic             Coordinates (Angstroms)
 Number     Number       Type             X           Y           Z
 ---------------------------------------------------------------------
      1          6           0        1.021081   -0.641930    0.003394
      2          6           0       -0.476412   -0.223204   -0.011070
      3          6           0       -0.871463    1.222459   -0.001945
      4          8           0        1.793746    0.342545   -0.003540
      5          1           0        1.189807   -1.646629    0.019726
      6          8           0       -1.350284   -1.003944    0.000708
      7          1           0       -1.948559    1.399297   -0.175954
      8          1           0       -0.254401    1.752967   -0.734923
      9          1           0       -0.573781    1.641612    0.971539
 ---------------------------------------------------------------------
 Rotational constants (GHZ):           9.5783139           4.4825382           3.1110038
 Standard basis: 6-31G(d) (6D, 7F)
 There are    83 symmetry adapted cartesian basis functions of A   symmetry.
 There are    83 symmetry adapted basis functions of A   symmetry.
    83 basis functions,   156 primitive gaussians,    83 cartesian basis functions
    19 alpha electrons       19 beta electrons
       nuclear repulsion energy       160.9826672390 Hartrees.
 NAtoms=    9 NActive=    9 NUniq=    9 SFac= 1.00D+00 NAtFMM=   60 NAOKFM=F Big=F
 Integral buffers will be    131072 words long.
 Raffenetti 2 integral format.
 Two-electron integral symmetry is turned on.
 One-electron integrals computed using PRISM.
 NBasis=    83 RedAO= T EigKep=  3.37D-03  NBF=    83
 NBsUse=    83 1.00D-06 EigRej= -1.00D+00 NBFU=    83
 ExpMin= 1.61D-01 ExpMax= 5.48D+03 ExpMxC= 8.25D+02 IAcc=3 IRadAn=         5 AccDes= 0.00D+00
 Harris functional with IExCor= 4538 and IRadAn=       5 diagonalized for initial guess.
 HarFok:  IExCor= 4538 AccDes= 0.00D+00 IRadAn=         5 IDoV= 1 UseB2=F ITyADJ=14
 ICtDFT=  3500011 ScaDFX=  1.000000  1.000000  1.000000  1.000000
 FoFCou: FMM=F IPFlag=           0 FMFlag=      100000 FMFlg1=           0
         NFxFlg=           0 DoJE=T BraDBF=F KetDBF=T FulRan=T
         wScrn=  0.000000 ICntrl=       500 IOpCl=  0 I1Cent=   200000004 NGrid=           0
         NMat0=    1 NMatS0=      1 NMatT0=    0 NMatD0=    1 NMtDS0=    0 NMtDT0=    0
 Petite list used in FoFCou.
 Keep R1 ints in memory in canonical form, NReq=13965830.
 Requested convergence on RMS density matrix=1.00D-08 within 128 cycles.
 Requested convergence on MAX density matrix=1.00D-06.
 Requested convergence on             energy=1.00D-06.
 No special actions if energy rises.
 Integral accuracy reduced to 1.0D-05 until final iterations.
 Initial convergence to 1.0D-05 achieved.  Increase integral accuracy.
 SCF Done:  E(RwB97X) =  -267.056099263     A.U. after   16 cycles
            NFock= 16  Conv=0.87D-08     -V/T= 2.0083

 **********************************************************************

            Population analysis using the SCF density.

 **********************************************************************

 Orbital symmetries:
       Occupied  (A) (A) (A) (A) (A) (A) (A) (A) (A) (A) (A) (A)
                 (A) (A) (A) (A) (A) (A) (A)
       Virtual   (A) (A) (A) (A) (A) (A) (A) (A) (A) (A) (A) (A)
                 (A) (A) (A) (A) (A) (A) (A) (A) (A) (A) (A) (A)
                 (A) (A) (A) (A) (A) (A) (A) (A) (A) (A) (A) (A)
                 (A) (A) (A) (A) (A) (A) (A) (A) (A) (A) (A) (A)
                 (A) (A) (A) (A) (A) (A) (A) (A) (A) (A) (A) (A)
                 (A) (A) (A) (A)
 The electronic state is 1-A.
 Alpha  occ. eigenvalues --  -19.25811 -19.22815 -10.38882 -10.37246 -10.27520
 Alpha  occ. eigenvalues --   -1.21391  -1.18334  -0.88037  -0.81449  -0.68317
 Alpha  occ. eigenvalues --   -0.60649  -0.58818  -0.57757  -0.54716  -0.50948
 Alpha  occ. eigenvalues --   -0.50420  -0.47430  -0.42738  -0.34736
 Alpha virt. eigenvalues --   -0.00550   0.13368   0.20828   0.22774   0.25037
 Alpha virt. eigenvalues --    0.26624   0.28975   0.34953   0.39925   0.43313
 Alpha virt. eigenvalues --    0.60739   0.62487   0.65718   0.68766   0.71421
 Alpha virt. eigenvalues --    0.74406   0.77330   0.83456   0.85270   0.91497
 Alpha virt. eigenvalues --    0.93478   0.96270   0.97478   1.02344   1.04328
 Alpha virt. eigenvalues --    1.07120   1.08130   1.10522   1.17503   1.20142
 Alpha virt. eigenvalues --    1.26730   1.31806   1.41971   1.53080   1.58269
 Alpha virt. eigenvalues --    1.66549   1.69823   1.75356   1.81706   1.89733
 Alpha virt. eigenvalues --    1.91041   1.92504   2.02286   2.05087   2.08159
 Alpha virt. eigenvalues --    2.13381   2.24255   2.26432   2.30051   2.37687
 Alpha virt. eigenvalues --    2.43879   2.58682   2.59468   2.60944   2.72982
 Alpha virt. eigenvalues --    2.97379   3.02138   3.11756   3.15597   3.90801
 Alpha virt. eigenvalues --    4.09297   4.22336   4.35579   4.58548
          Condensed to atoms (all electrons):
               1          2          3          4          5          6
     1  C    4.855143   0.292390  -0.096521   0.472571   0.343860  -0.058843
     2  C    0.292390   4.675644   0.338517  -0.076771  -0.079382   0.568230
     3  C   -0.096521   0.338517   5.299036   0.012477   0.006042  -0.096066
     4  O    0.472571  -0.076771   0.012477   7.986434  -0.028911   0.002917
     5  H    0.343860  -0.079382   0.006042  -0.028911   0.551548   0.011785
     6  O   -0.058843   0.568230  -0.096066   0.002917   0.011785   7.945749
     7  H    0.003042  -0.023561   0.375211   0.000338  -0.000017   0.000991
     8  H    0.003902  -0.025001   0.356101   0.002506  -0.000059   0.002967
     9  H    0.003241  -0.022641   0.360912  -0.000304  -0.000149   0.000661
               7          8          9
     1  C    0.003042   0.003902   0.003241
     2  C   -0.023561  -0.025001  -0.022641
     3  C    0.375211   0.356101   0.360912
     4  O    0.000338   0.002506  -0.000304
     5  H   -0.000017  -0.000059  -0.000149
     6  O    0.000991   0.002967   0.000661
     7  H    0.485406  -0.020169  -0.019337
     8  H   -0.020169   0.513589  -0.022265
     9  H   -0.019337  -0.022265   0.510127
 Mulliken charges:
               1
     1  C    0.181215
     2  C    0.352575
     3  C   -0.555708
     4  O   -0.371257
     5  H    0.195282
     6  O   -0.378391
     7  H    0.198096
     8  H    0.188430
     9  H    0.189757
 Sum of Mulliken charges =  -0.00000
 Mulliken charges with hydrogens summed into heavy atoms:
               1
     1  C    0.376497
     2  C    0.352575
     3  C    0.020575
     4  O   -0.371257
     6  O   -0.378391
 Electronic spatial extent (au):  <R**2>=            390.6380
 Charge=             -0.0000 electrons
 Dipole moment (field-independent basis, Debye):
    X=              0.2056    Y=             -0.0073    Z=              0.0484  Tot=              0.2114
 Quadrupole moment (field-independent basis, Debye-Ang):
   XX=            -34.3540   YY=            -27.8533   ZZ=            -27.0825
   XY=             -5.8153   XZ=              0.0227   YZ=              0.0628
 Traceless Quadrupole moment (field-independent basis, Debye-Ang):
   XX=             -4.5907   YY=              1.9100   ZZ=              2.6807
   XY=             -5.8153   XZ=              0.0227   YZ=              0.0628
 Octapole moment (field-independent basis, Debye-Ang**2):
  XXX=             -4.9774  YYY=             -2.9343  ZZZ=              0.4352  XYY=              4.8507
  XXY=              0.0460  XXZ=             -0.3691  XZZ=              1.0434  YZZ=             -0.6720
  YYZ=              0.0827  XYZ=             -0.0779
 Hexadecapole moment (field-independent basis, Debye-Ang**3):
 XXXX=           -292.5387 YYYY=           -164.8142 ZZZZ=            -29.2919 XXXY=             -7.8538
 XXXZ=              1.0583 YYYX=             -0.9455 YYYZ=             -0.0627 ZZZX=             -0.3532
 ZZZY=              0.7505 XXYY=            -72.4275 XXZZ=            -49.4722 YYZZ=            -30.8471
 XXYZ=             -0.5437 YYXZ=             -0.1608 ZZXY=              2.6773
 N-N= 1.609826672390D+02 E-N=-9.468453826199D+02  KE= 2.648587608850D+02
 1\1\GINC-NODE67\SP\RwB97X\6-31G(d)\C3H4O2\YANZ\22-Sep-2023\0\\# 6-31g(
 d) wb97x\\tmpdir/M2_conf_0_8.gjf\\0,1\C,0,0.,0.,0.\C,0,1.555,0.,0.\C,0
 ,2.32464,0.,1.28598\O,0,-0.47893,-0.02603,1.15594\H,0,-0.43318,0.02398
 ,-0.92192\O,0,2.18621,0.03015,-0.98692\H,0,3.41114,-0.16238,1.16417\H,
 0,1.88007,-0.74566,1.95367\H,0,2.14178,0.96562,1.78208\\Version=ES64L-
 G16RevA.03\State=1-A\HF=-267.0560993\RMSD=8.679e-09\Dipole=-0.0788616,
 0.0180558,0.019266\Quadrupole=-0.8197819,1.9898337,-1.1700518,-0.09249
 45,4.9484384,0.1355712\PG=C01 [X(C3H4O2)]\\@


 Standing in the middle of the road is very dangerous;
 you get knocked down by the traffic from both sides.
                                -- Margaret Thatcher
 Job cpu time:       0 days  0 hours  0 minutes 27.9 seconds.
 Elapsed time:       0 days  0 hours  0 minutes 14.1 seconds.
 File lengths (MBytes):  RWF=      6 Int=      0 D2E=      0 Chk=      2 Scr=      1
 Normal termination of Gaussian 16 at Fri Sep 22 16:30:34 2023.
