 Entering Gaussian System, Link 0=g16
 Initial command:
 /share/apps/gaussian/g16/l1.exe "/tmp/55568.mgr/Gau-357325.inp" -scrdir="/tmp/55568.mgr/"
 Entering Link 1 = /share/apps/gaussian/g16/l1.exe PID=    357326.
  
 Copyright (c) 1988,1990,1992,1993,1995,1998,2003,2009,2016,
            Gaussian, Inc.  All Rights Reserved.
  
 This is part of the Gaussian(R) 16 program.  It is based on
 the Gaussian(R) 09 system (copyright 2009, Gaussian, Inc.),
 the Gaussian(R) 03 system (copyright 2003, Gaussian, Inc.),
 the Gaussian(R) 98 system (copyright 1998, Gaussian, Inc.),
 the Gaussian(R) 94 system (copyright 1995, Gaussian, Inc.),
 the Gaussian 92(TM) system (copyright 1992, Gaussian, Inc.),
 the Gaussian 90(TM) system (copyright 1990, Gaussian, Inc.),
 the Gaussian 88(TM) system (copyright 1988, Gaussian, Inc.),
 the Gaussian 86(TM) system (copyright 1986, Carnegie Mellon
 University), and the Gaussian 82(TM) system (copyright 1983,
 Carnegie Mellon University). Gaussian is a federally registered
 trademark of Gaussian, Inc.
  
 This software contains proprietary and confidential information,
 including trade secrets, belonging to Gaussian, Inc.
  
 This software is provided under written license and may be
 used, copied, transmitted, or stored only in accord with that
 written license.
  
 The following legend is applicable only to US Government
 contracts under FAR:
  
                    RESTRICTED RIGHTS LEGEND
  
 Use, reproduction and disclosure by the US Government is
 subject to restrictions as set forth in subparagraphs (a)
 and (c) of the Commercial Computer Software - Restricted
 Rights clause in FAR 52.227-19.
  
 Gaussian, Inc.
 340 Quinnipiac St., Bldg. 40, Wallingford CT 06492
  
  
 ---------------------------------------------------------------
 Warning -- This program may not be used in any manner that
 competes with the business of Gaussian, Inc. or will provide
 assistance to any competitor of Gaussian, Inc.  The licensee
 of this program is prohibited from giving any competitor of
 Gaussian, Inc. access to this program.  By using this program,
 the user acknowledges that Gaussian, Inc. is engaged in the
 business of creating and licensing software in the field of
 computational chemistry and represents and warrants to the
 licensee that it is not a competitor of Gaussian, Inc. and that
 it will not use this program in any manner prohibited above.
 ---------------------------------------------------------------
  

 Cite this work as:
 Gaussian 16, Revision A.03,
 M. J. Frisch, G. W. Trucks, H. B. Schlegel, G. E. Scuseria, 
 M. A. Robb, J. R. Cheeseman, G. Scalmani, V. Barone, 
 G. A. Petersson, H. Nakatsuji, X. Li, M. Caricato, A. V. Marenich, 
 J. Bloino, B. G. Janesko, R. Gomperts, B. Mennucci, H. P. Hratchian, 
 J. V. Ortiz, A. F. Izmaylov, J. L. Sonnenberg, D. Williams-Young, 
 F. Ding, F. Lipparini, F. Egidi, J. Goings, B. Peng, A. Petrone, 
 T. Henderson, D. Ranasinghe, V. G. Zakrzewski, J. Gao, N. Rega, 
 G. Zheng, W. Liang, M. Hada, M. Ehara, K. Toyota, R. Fukuda, 
 J. Hasegawa, M. Ishida, T. Nakajima, Y. Honda, O. Kitao, H. Nakai, 
 T. Vreven, K. Throssell, J. A. Montgomery, Jr., J. E. Peralta, 
 F. Ogliaro, M. J. Bearpark, J. J. Heyd, E. N. Brothers, K. N. Kudin, 
 V. N. Staroverov, T. A. Keith, R. Kobayashi, J. Normand, 
 K. Raghavachari, A. P. Rendell, J. C. Burant, S. S. Iyengar, 
 J. Tomasi, M. Cossi, J. M. Millam, M. Klene, C. Adamo, R. Cammi, 
 J. W. Ochterski, R. L. Martin, K. Morokuma, O. Farkas, 
 J. B. Foresman, and D. J. Fox, Gaussian, Inc., Wallingford CT, 2016.
 
 ******************************************
 Gaussian 16:  ES64L-G16RevA.03 25-Dec-2016
                22-Sep-2023 
 ******************************************
 %nprocshared=2
 Will use up to    2 processors via shared memory.
 %mem=2GB
 ----------------
 # 6-31g(d) wb97x
 ----------------
 1/38=1,172=1/1;
 2/12=2,17=6,18=5,40=1/2;
 3/5=1,6=6,7=1,11=2,25=1,30=1,74=-57/1,2,3;
 4//1;
 5/5=2,38=5/2;
 6/7=2,8=2,9=2,10=2,28=1/1;
 99/5=1,9=1/99;
 -----------------------
 tmpdir/M2_conf_1_83.gjf
 -----------------------
 Symbolic Z-matrix:
 Charge =  0 Multiplicity = 1
 C                     0.        0.        0. 
 C                     1.5274    0.        0. 
 H                     1.90484   0.        1.03141 
 H                    -0.38324   0.94296   0.40046 
 H                    -0.40581  -0.81157   0.61401 
 H                    -0.39238  -0.11264  -1.01541 
 H                     1.98472  -0.86472  -0.52101 
 H                     1.89851   0.92516  -0.45584 
 
                          Input orientation:                          
 ---------------------------------------------------------------------
 Center     Atomic      Atomic             Coordinates (Angstroms)
 Number     Number       Type             X           Y           Z
 ---------------------------------------------------------------------
      1          6           0        0.000000    0.000000    0.000000
      2          6           0        1.527400    0.000000    0.000000
      3          1           0        1.904840    0.000000    1.031410
      4          1           0       -0.383240    0.942960    0.400460
      5          1           0       -0.405810   -0.811570    0.614010
      6          1           0       -0.392380   -0.112640   -1.015410
      7          1           0        1.984720   -0.864720   -0.521010
      8          1           0        1.898510    0.925160   -0.455840
 ---------------------------------------------------------------------
                    Distance matrix (angstroms):
                    1          2          3          4          5
     1  C    0.000000
     2  C    1.527400   0.000000
     3  H    2.166154   1.098302   0.000000
     4  H    1.093807   2.167968   2.553935   0.000000
     5  H    1.095598   2.184709   2.484345   1.767622   0.000000
     6  H    1.094398   2.174695   3.078860   1.766087   1.773046
     7  H    2.226725   1.108302   1.778800   3.118341   2.646834
     8  H    2.160567   1.096099   1.751535   2.437201   3.077450
                    6          7          8
     6  H    0.000000
     7  H    2.541783   0.000000
     8  H    2.576495   1.793140   0.000000
 Stoichiometry    C2H6
 Framework group  C1[X(C2H6)]
 Deg. of freedom    18
 Full point group                 C1      NOp   1
 Largest Abelian subgroup         C1      NOp   1
 Largest concise Abelian subgroup C1      NOp   1
                         Standard orientation:                         
 ---------------------------------------------------------------------
 Center     Atomic      Atomic             Coordinates (Angstroms)
 Number     Number       Type             X           Y           Z
 ---------------------------------------------------------------------
      1          6           0       -0.765058   -0.005211    0.000094
      2          6           0        0.762339   -0.005102   -0.002652
      3          1           0        1.141494    0.350112    0.964990
      4          1           0       -1.148279    1.017951    0.052021
      5          1           0       -1.169290   -0.555722    0.856756
      6          1           0       -1.159050   -0.460666   -0.913711
      7          1           0        1.219385   -0.996318   -0.194832
      8          1           0        1.132056    0.706518   -0.749874
 ---------------------------------------------------------------------
 Rotational constants (GHZ):          79.9090953          19.9840185          19.9292004
 Standard basis: 6-31G(d) (6D, 7F)
 There are    42 symmetry adapted cartesian basis functions of A   symmetry.
 There are    42 symmetry adapted basis functions of A   symmetry.
    42 basis functions,    80 primitive gaussians,    42 cartesian basis functions
     9 alpha electrons        9 beta electrons
       nuclear repulsion energy        42.1223736521 Hartrees.
 NAtoms=    8 NActive=    8 NUniq=    8 SFac= 1.00D+00 NAtFMM=   60 NAOKFM=F Big=F
 Integral buffers will be    131072 words long.
 Raffenetti 2 integral format.
 Two-electron integral symmetry is turned on.
 One-electron integrals computed using PRISM.
 NBasis=    42 RedAO= T EigKep=  8.40D-03  NBF=    42
 NBsUse=    42 1.00D-06 EigRej= -1.00D+00 NBFU=    42
 ExpMin= 1.61D-01 ExpMax= 3.05D+03 ExpMxC= 4.57D+02 IAcc=3 IRadAn=         5 AccDes= 0.00D+00
 Harris functional with IExCor= 4538 and IRadAn=       5 diagonalized for initial guess.
 HarFok:  IExCor= 4538 AccDes= 0.00D+00 IRadAn=         5 IDoV= 1 UseB2=F ITyADJ=14
 ICtDFT=  3500011 ScaDFX=  1.000000  1.000000  1.000000  1.000000
 FoFCou: FMM=F IPFlag=           0 FMFlag=      100000 FMFlg1=           0
         NFxFlg=           0 DoJE=T BraDBF=F KetDBF=T FulRan=T
         wScrn=  0.000000 ICntrl=       500 IOpCl=  0 I1Cent=   200000004 NGrid=           0
         NMat0=    1 NMatS0=      1 NMatT0=    0 NMatD0=    1 NMtDS0=    0 NMtDT0=    0
 Petite list used in FoFCou.
 Keep R1 ints in memory in canonical form, NReq=2543288.
 Requested convergence on RMS density matrix=1.00D-08 within 128 cycles.
 Requested convergence on MAX density matrix=1.00D-06.
 Requested convergence on             energy=1.00D-06.
 No special actions if energy rises.
 Integral accuracy reduced to 1.0D-05 until final iterations.
 Initial convergence to 1.0D-05 achieved.  Increase integral accuracy.
 SCF Done:  E(RwB97X) =  -79.8007606651     A.U. after   12 cycles
            NFock= 12  Conv=0.28D-08     -V/T= 2.0109

 **********************************************************************

            Population analysis using the SCF density.

 **********************************************************************

 Orbital symmetries:
       Occupied  (A) (A) (A) (A) (A) (A) (A) (A) (A)
       Virtual   (A) (A) (A) (A) (A) (A) (A) (A) (A) (A) (A) (A)
                 (A) (A) (A) (A) (A) (A) (A) (A) (A) (A) (A) (A)
                 (A) (A) (A) (A) (A) (A) (A) (A) (A)
 The electronic state is 1-A.
 Alpha  occ. eigenvalues --  -10.25631 -10.25472  -0.87871  -0.73408  -0.54177
 Alpha  occ. eigenvalues --   -0.54014  -0.46732  -0.44190  -0.43921
 Alpha virt. eigenvalues --    0.19992   0.25319   0.25729   0.25940   0.29073
 Alpha virt. eigenvalues --    0.29479   0.34015   0.61780   0.64856   0.64956
 Alpha virt. eigenvalues --    0.74070   0.75477   0.78884   0.99896   1.00004
 Alpha virt. eigenvalues --    1.02529   1.03829   1.04011   1.09927   1.17310
 Alpha virt. eigenvalues --    1.55075   1.61812   1.63052   2.04472   2.07735
 Alpha virt. eigenvalues --    2.10254   2.36034   2.38330   2.44425   2.45789
 Alpha virt. eigenvalues --    2.70234   4.27227   4.49284
          Condensed to atoms (all electrons):
               1          2          3          4          5          6
     1  C    5.047573   0.354473  -0.035564   0.389813   0.389176   0.388898
     2  C    0.354473   5.051978   0.388244  -0.034177  -0.033658  -0.034521
     3  H   -0.035564   0.388244   0.554560  -0.002237  -0.004641   0.004168
     4  H    0.389813  -0.034177  -0.002237   0.548043  -0.028778  -0.028671
     5  H    0.389176  -0.033658  -0.004641  -0.028778   0.546965  -0.028115
     6  H    0.388898  -0.034521   0.004168  -0.028671  -0.028115   0.547602
     7  H   -0.030214   0.387590  -0.028658   0.003706  -0.001729  -0.003987
     8  H   -0.035998   0.388953  -0.030712  -0.004775   0.004126  -0.002258
               7          8
     1  C   -0.030214  -0.035998
     2  C    0.387590   0.388953
     3  H   -0.028658  -0.030712
     4  H    0.003706  -0.004775
     5  H   -0.001729   0.004126
     6  H   -0.003987  -0.002258
     7  H    0.544612  -0.026843
     8  H   -0.026843   0.551446
 Mulliken charges:
               1
     1  C   -0.468156
     2  C   -0.468881
     3  H    0.154841
     4  H    0.157076
     5  H    0.156653
     6  H    0.156884
     7  H    0.155523
     8  H    0.156061
 Sum of Mulliken charges =   0.00000
 Mulliken charges with hydrogens summed into heavy atoms:
               1
     1  C    0.002457
     2  C   -0.002457
 Electronic spatial extent (au):  <R**2>=            109.5211
 Charge=              0.0000 electrons
 Dipole moment (field-independent basis, Debye):
    X=             -0.0065    Y=              0.0361    Z=              0.0057  Tot=              0.0371
 Quadrupole moment (field-independent basis, Debye-Ang):
   XX=            -15.2480   YY=            -14.6482   ZZ=            -14.7469
   XY=             -0.0497   XZ=             -0.0035   YZ=             -0.0047
 Traceless Quadrupole moment (field-independent basis, Debye-Ang):
   XX=             -0.3670   YY=              0.2328   ZZ=              0.1342
   XY=             -0.0497   XZ=             -0.0035   YZ=             -0.0047
 Octapole moment (field-independent basis, Debye-Ang**2):
  XXX=             -0.0178  YYY=              0.1954  ZZZ=              0.2233  XYY=              0.0855
  XXY=             -0.1071  XXZ=              0.0194  XZZ=             -0.1396  YZZ=             -0.0581
  YYZ=             -0.2182  XYZ=              0.0228
 Hexadecapole moment (field-independent basis, Debye-Ang**3):
 XXXX=            -92.6605 YYYY=            -28.6234 ZZZZ=            -28.4701 XXXY=             -0.2484
 XXXZ=             -0.0448 YYYX=             -1.2652 YYYZ=             -0.0461 ZZZX=              0.4916
 ZZZY=              0.0168 XXYY=            -18.8579 XXZZ=            -19.0986 YYZZ=             -9.4955
 XXYZ=              0.0262 YYXZ=             -0.4941 ZZXY=              1.2251
 N-N= 4.212237365211D+01 E-N=-2.679797802333D+02  KE= 7.893938291094D+01
 1\1\GINC-NODE67\SP\RwB97X\6-31G(d)\C2H6\YANZ\22-Sep-2023\0\\# 6-31g(d)
  wb97x\\tmpdir/M2_conf_1_83.gjf\\0,1\C,0,0.,0.,0.\C,0,1.5274,0.,0.\H,0
 ,1.90484,0.,1.03141\H,0,-0.38324,0.94296,0.40046\H,0,-0.40581,-0.81157
 ,0.61401\H,0,-0.39238,-0.11264,-1.01541\H,0,1.98472,-0.86472,-0.52101\
 H,0,1.89851,0.92516,-0.45584\\Version=ES64L-G16RevA.03\State=1-A\HF=-7
 9.8007607\RMSD=2.752e-09\Dipole=-0.0025717,0.0125469,0.007\Quadrupole=
 -0.2728434,0.1666861,0.1061573,-0.0335683,-0.0157637,0.0210238\PG=C01 
 [X(C2H6)]\\@


 You don't have to suffer to be a poet.
 Adolescence is enough suffering for anyone.
                             -- John Ciardi
 Job cpu time:       0 days  0 hours  0 minutes 10.4 seconds.
 Elapsed time:       0 days  0 hours  0 minutes  5.3 seconds.
 File lengths (MBytes):  RWF=      6 Int=      0 D2E=      0 Chk=      1 Scr=      1
 Normal termination of Gaussian 16 at Fri Sep 22 16:32:07 2023.
