 Entering Gaussian System, Link 0=g16
 Initial command:
 /share/apps/gaussian/g16/l1.exe "/tmp/55568.mgr/Gau-357144.inp" -scrdir="/tmp/55568.mgr/"
 Entering Link 1 = /share/apps/gaussian/g16/l1.exe PID=    357145.
  
 Copyright (c) 1988,1990,1992,1993,1995,1998,2003,2009,2016,
            Gaussian, Inc.  All Rights Reserved.
  
 This is part of the Gaussian(R) 16 program.  It is based on
 the Gaussian(R) 09 system (copyright 2009, Gaussian, Inc.),
 the Gaussian(R) 03 system (copyright 2003, Gaussian, Inc.),
 the Gaussian(R) 98 system (copyright 1998, Gaussian, Inc.),
 the Gaussian(R) 94 system (copyright 1995, Gaussian, Inc.),
 the Gaussian 92(TM) system (copyright 1992, Gaussian, Inc.),
 the Gaussian 90(TM) system (copyright 1990, Gaussian, Inc.),
 the Gaussian 88(TM) system (copyright 1988, Gaussian, Inc.),
 the Gaussian 86(TM) system (copyright 1986, Carnegie Mellon
 University), and the Gaussian 82(TM) system (copyright 1983,
 Carnegie Mellon University). Gaussian is a federally registered
 trademark of Gaussian, Inc.
  
 This software contains proprietary and confidential information,
 including trade secrets, belonging to Gaussian, Inc.
  
 This software is provided under written license and may be
 used, copied, transmitted, or stored only in accord with that
 written license.
  
 The following legend is applicable only to US Government
 contracts under FAR:
  
                    RESTRICTED RIGHTS LEGEND
  
 Use, reproduction and disclosure by the US Government is
 subject to restrictions as set forth in subparagraphs (a)
 and (c) of the Commercial Computer Software - Restricted
 Rights clause in FAR 52.227-19.
  
 Gaussian, Inc.
 340 Quinnipiac St., Bldg. 40, Wallingford CT 06492
  
  
 ---------------------------------------------------------------
 Warning -- This program may not be used in any manner that
 competes with the business of Gaussian, Inc. or will provide
 assistance to any competitor of Gaussian, Inc.  The licensee
 of this program is prohibited from giving any competitor of
 Gaussian, Inc. access to this program.  By using this program,
 the user acknowledges that Gaussian, Inc. is engaged in the
 business of creating and licensing software in the field of
 computational chemistry and represents and warrants to the
 licensee that it is not a competitor of Gaussian, Inc. and that
 it will not use this program in any manner prohibited above.
 ---------------------------------------------------------------
  

 Cite this work as:
 Gaussian 16, Revision A.03,
 M. J. Frisch, G. W. Trucks, H. B. Schlegel, G. E. Scuseria, 
 M. A. Robb, J. R. Cheeseman, G. Scalmani, V. Barone, 
 G. A. Petersson, H. Nakatsuji, X. Li, M. Caricato, A. V. Marenich, 
 J. Bloino, B. G. Janesko, R. Gomperts, B. Mennucci, H. P. Hratchian, 
 J. V. Ortiz, A. F. Izmaylov, J. L. Sonnenberg, D. Williams-Young, 
 F. Ding, F. Lipparini, F. Egidi, J. Goings, B. Peng, A. Petrone, 
 T. Henderson, D. Ranasinghe, V. G. Zakrzewski, J. Gao, N. Rega, 
 G. Zheng, W. Liang, M. Hada, M. Ehara, K. Toyota, R. Fukuda, 
 J. Hasegawa, M. Ishida, T. Nakajima, Y. Honda, O. Kitao, H. Nakai, 
 T. Vreven, K. Throssell, J. A. Montgomery, Jr., J. E. Peralta, 
 F. Ogliaro, M. J. Bearpark, J. J. Heyd, E. N. Brothers, K. N. Kudin, 
 V. N. Staroverov, T. A. Keith, R. Kobayashi, J. Normand, 
 K. Raghavachari, A. P. Rendell, J. C. Burant, S. S. Iyengar, 
 J. Tomasi, M. Cossi, J. M. Millam, M. Klene, C. Adamo, R. Cammi, 
 J. W. Ochterski, R. L. Martin, K. Morokuma, O. Farkas, 
 J. B. Foresman, and D. J. Fox, Gaussian, Inc., Wallingford CT, 2016.
 
 ******************************************
 Gaussian 16:  ES64L-G16RevA.03 25-Dec-2016
                22-Sep-2023 
 ******************************************
 %nprocshared=2
 Will use up to    2 processors via shared memory.
 %mem=2GB
 ----------------
 # 6-31g(d) wb97x
 ----------------
 1/38=1,172=1/1;
 2/12=2,17=6,18=5,40=1/2;
 3/5=1,6=6,7=1,11=2,25=1,30=1,74=-57/1,2,3;
 4//1;
 5/5=2,38=5/2;
 6/7=2,8=2,9=2,10=2,28=1/1;
 99/5=1,9=1/99;
 -----------------------
 tmpdir/M2_conf_1_82.gjf
 -----------------------
 Symbolic Z-matrix:
 Charge =  0 Multiplicity = 1
 C                     0.        0.        0. 
 C                     1.5274    0.        0. 
 H                     1.87302   0.        1.04018 
 H                    -0.38324  -0.77598   0.66887 
 H                    -0.40581  -0.19209  -0.99938 
 H                    -0.39238   0.96064   0.34775 
 H                     1.98472   0.84955  -0.5454 
 H                     1.90808  -0.92413  -0.45533 
 
                          Input orientation:                          
 ---------------------------------------------------------------------
 Center     Atomic      Atomic             Coordinates (Angstroms)
 Number     Number       Type             X           Y           Z
 ---------------------------------------------------------------------
      1          6           0        0.000000    0.000000    0.000000
      2          6           0        1.527400    0.000000    0.000000
      3          1           0        1.873020    0.000000    1.040180
      4          1           0       -0.383240   -0.775980    0.668870
      5          1           0       -0.405810   -0.192090   -0.999380
      6          1           0       -0.392380    0.960640    0.347750
      7          1           0        1.984720    0.849550   -0.545400
      8          1           0        1.908080   -0.924130   -0.455330
 ---------------------------------------------------------------------
                    Distance matrix (angstroms):
                    1          2          3          4          5
     1  C    0.000000
     2  C    1.527400   0.000000
     3  H    2.142470   1.096097   0.000000
     4  H    1.093803   2.167966   2.414689   0.000000
     5  H    1.095601   2.184710   3.064273   1.767624   0.000000
     6  H    1.094405   2.174699   2.556233   1.766083   1.773056
     7  H    2.226726   1.108304   1.802297   3.118338   2.646837
     8  H    2.168435   1.098298   1.758350   2.556545   2.487159
                    6          7          8
     6  H    0.000000
     7  H    2.541783   0.000000
     8  H    3.080489   1.777618   0.000000
 Stoichiometry    C2H6
 Framework group  C1[X(C2H6)]
 Deg. of freedom    18
 Full point group                 C1      NOp   1
 Largest Abelian subgroup         C1      NOp   1
 Largest concise Abelian subgroup C1      NOp   1
                         Standard orientation:                         
 ---------------------------------------------------------------------
 Center     Atomic      Atomic             Coordinates (Angstroms)
 Number     Number       Type             X           Y           Z
 ---------------------------------------------------------------------
      1          6           0       -0.763815   -0.006343    0.000538
      2          6           0        0.763577   -0.004259   -0.003748
      3          1           0        1.106268    0.810339   -0.652147
      4          1           0       -1.147890    0.999634    0.192639
      5          1           0       -1.166552   -0.669528    0.774055
      6          1           0       -1.158466   -0.332627   -0.966680
      7          1           0        1.221285   -0.959289   -0.330489
      8          1           0        1.146782    0.215084    1.001886
 ---------------------------------------------------------------------
 Rotational constants (GHZ):          79.7092133          20.0188849          19.9609470
 Standard basis: 6-31G(d) (6D, 7F)
 There are    42 symmetry adapted cartesian basis functions of A   symmetry.
 There are    42 symmetry adapted basis functions of A   symmetry.
    42 basis functions,    80 primitive gaussians,    42 cartesian basis functions
     9 alpha electrons        9 beta electrons
       nuclear repulsion energy        42.1346184267 Hartrees.
 NAtoms=    8 NActive=    8 NUniq=    8 SFac= 1.00D+00 NAtFMM=   60 NAOKFM=F Big=F
 Integral buffers will be    131072 words long.
 Raffenetti 2 integral format.
 Two-electron integral symmetry is turned on.
 One-electron integrals computed using PRISM.
 NBasis=    42 RedAO= T EigKep=  8.37D-03  NBF=    42
 NBsUse=    42 1.00D-06 EigRej= -1.00D+00 NBFU=    42
 ExpMin= 1.61D-01 ExpMax= 3.05D+03 ExpMxC= 4.57D+02 IAcc=3 IRadAn=         5 AccDes= 0.00D+00
 Harris functional with IExCor= 4538 and IRadAn=       5 diagonalized for initial guess.
 HarFok:  IExCor= 4538 AccDes= 0.00D+00 IRadAn=         5 IDoV= 1 UseB2=F ITyADJ=14
 ICtDFT=  3500011 ScaDFX=  1.000000  1.000000  1.000000  1.000000
 FoFCou: FMM=F IPFlag=           0 FMFlag=      100000 FMFlg1=           0
         NFxFlg=           0 DoJE=T BraDBF=F KetDBF=T FulRan=T
         wScrn=  0.000000 ICntrl=       500 IOpCl=  0 I1Cent=   200000004 NGrid=           0
         NMat0=    1 NMatS0=      1 NMatT0=    0 NMatD0=    1 NMtDS0=    0 NMtDT0=    0
 Petite list used in FoFCou.
 Keep R1 ints in memory in canonical form, NReq=2543288.
 Requested convergence on RMS density matrix=1.00D-08 within 128 cycles.
 Requested convergence on MAX density matrix=1.00D-06.
 Requested convergence on             energy=1.00D-06.
 No special actions if energy rises.
 Integral accuracy reduced to 1.0D-05 until final iterations.
 Initial convergence to 1.0D-05 achieved.  Increase integral accuracy.
 SCF Done:  E(RwB97X) =  -79.8005945895     A.U. after   12 cycles
            NFock= 12  Conv=0.16D-08     -V/T= 2.0109

 **********************************************************************

            Population analysis using the SCF density.

 **********************************************************************

 Orbital symmetries:
       Occupied  (A) (A) (A) (A) (A) (A) (A) (A) (A)
       Virtual   (A) (A) (A) (A) (A) (A) (A) (A) (A) (A) (A) (A)
                 (A) (A) (A) (A) (A) (A) (A) (A) (A) (A) (A) (A)
                 (A) (A) (A) (A) (A) (A) (A) (A) (A)
 The electronic state is 1-A.
 Alpha  occ. eigenvalues --  -10.25634 -10.25447  -0.87894  -0.73353  -0.54280
 Alpha  occ. eigenvalues --   -0.54015  -0.46649  -0.44186  -0.43932
 Alpha virt. eigenvalues --    0.19954   0.25318   0.25831   0.25921   0.29030
 Alpha virt. eigenvalues --    0.29468   0.33962   0.61739   0.64823   0.65180
 Alpha virt. eigenvalues --    0.73882   0.75442   0.78884   0.99895   0.99991
 Alpha virt. eigenvalues --    1.02415   1.03851   1.04118   1.09953   1.17354
 Alpha virt. eigenvalues --    1.54927   1.61756   1.62998   2.04527   2.07983
 Alpha virt. eigenvalues --    2.10717   2.35895   2.38605   2.44092   2.45581
 Alpha virt. eigenvalues --    2.70312   4.27254   4.49276
          Condensed to atoms (all electrons):
               1          2          3          4          5          6
     1  C    5.049829   0.354308  -0.037967   0.390000   0.388916   0.388905
     2  C    0.354308   5.051114   0.389127  -0.034222  -0.033900  -0.034475
     3  H   -0.037967   0.389127   0.551775  -0.004965   0.004277  -0.002347
     4  H    0.390000  -0.034222  -0.004965   0.548433  -0.028761  -0.028795
     5  H    0.388916  -0.033900   0.004277  -0.028761   0.547679  -0.028045
     6  H    0.388905  -0.034475  -0.002347  -0.028795  -0.028045   0.547822
     7  H   -0.030158   0.387643  -0.025837   0.003706  -0.001692  -0.004021
     8  H   -0.035265   0.388359  -0.029961  -0.002252  -0.004586   0.004156
               7          8
     1  C   -0.030158  -0.035265
     2  C    0.387643   0.388359
     3  H   -0.025837  -0.029961
     4  H    0.003706  -0.002252
     5  H   -0.001692  -0.004586
     6  H   -0.004021   0.004156
     7  H    0.543647  -0.029075
     8  H   -0.029075   0.553550
 Mulliken charges:
               1
     1  C   -0.468568
     2  C   -0.467955
     3  H    0.155896
     4  H    0.156855
     5  H    0.156111
     6  H    0.156800
     7  H    0.155787
     8  H    0.155074
 Sum of Mulliken charges =   0.00000
 Mulliken charges with hydrogens summed into heavy atoms:
               1
     1  C    0.001199
     2  C   -0.001199
 Electronic spatial extent (au):  <R**2>=            109.4142
 Charge=              0.0000 electrons
 Dipole moment (field-independent basis, Debye):
    X=             -0.0089    Y=              0.0350    Z=              0.0091  Tot=              0.0372
 Quadrupole moment (field-independent basis, Debye-Ang):
   XX=            -15.2901   YY=            -14.6332   ZZ=            -14.7392
   XY=             -0.0758   XZ=              0.0167   YZ=             -0.0022
 Traceless Quadrupole moment (field-independent basis, Debye-Ang):
   XX=             -0.4026   YY=              0.2543   ZZ=              0.1483
   XY=             -0.0758   XZ=              0.0167   YZ=             -0.0022
 Octapole moment (field-independent basis, Debye-Ang**2):
  XXX=             -0.0676  YYY=              0.2771  ZZZ=              0.1817  XYY=              0.0831
  XXY=             -0.1517  XXZ=              0.0425  XZZ=             -0.1216  YZZ=             -0.1308
  YYZ=             -0.1707  XYZ=              0.0498
 Hexadecapole moment (field-independent basis, Debye-Ang**3):
 XXXX=            -92.5875 YYYY=            -28.6094 ZZZZ=            -28.4738 XXXY=             -0.3505
 XXXZ=              0.0297 YYYX=             -0.9906 YYYZ=             -0.0571 ZZZX=              0.9710
 ZZZY=              0.0158 XXYY=            -18.8654 XXZZ=            -19.0687 YYZZ=             -9.5084
 XXYZ=              0.0882 YYXZ=             -0.9415 ZZXY=              0.9142
 N-N= 4.213461842666D+01 E-N=-2.680057400187D+02  KE= 7.894075959093D+01
 1\1\GINC-NODE67\SP\RwB97X\6-31G(d)\C2H6\YANZ\22-Sep-2023\0\\# 6-31g(d)
  wb97x\\tmpdir/M2_conf_1_82.gjf\\0,1\C,0,0.,0.,0.\C,0,1.5274,0.,0.\H,0
 ,1.87302,0.,1.04018\H,0,-0.38324,-0.77598,0.66887\H,0,-0.40581,-0.1920
 9,-0.99938\H,0,-0.39238,0.96064,0.34775\H,0,1.98472,0.84955,-0.5454\H,
 0,1.90808,-0.92413,-0.45533\\Version=ES64L-G16RevA.03\State=1-A\HF=-79
 .8005946\RMSD=1.642e-09\Dipole=-0.0034734,-0.0113799,0.0085554\Quadrup
 ole=-0.299552,0.1391494,0.1604026,0.0258754,-0.0506141,-0.0380271\PG=C
 01 [X(C2H6)]\\@


 AN AIRPLANE IS A COLLECTION OF SPARE PARTS
 FLYING IN CLOSE FORMATION.
 Job cpu time:       0 days  0 hours  0 minutes 10.4 seconds.
 Elapsed time:       0 days  0 hours  0 minutes  5.3 seconds.
 File lengths (MBytes):  RWF=      6 Int=      0 D2E=      0 Chk=      1 Scr=      1
 Normal termination of Gaussian 16 at Fri Sep 22 16:32:02 2023.
