 Entering Gaussian System, Link 0=g16
 Initial command:
 /share/apps/gaussian/g16/l1.exe "/tmp/55568.mgr/Gau-356314.inp" -scrdir="/tmp/55568.mgr/"
 Entering Link 1 = /share/apps/gaussian/g16/l1.exe PID=    356315.
  
 Copyright (c) 1988,1990,1992,1993,1995,1998,2003,2009,2016,
            Gaussian, Inc.  All Rights Reserved.
  
 This is part of the Gaussian(R) 16 program.  It is based on
 the Gaussian(R) 09 system (copyright 2009, Gaussian, Inc.),
 the Gaussian(R) 03 system (copyright 2003, Gaussian, Inc.),
 the Gaussian(R) 98 system (copyright 1998, Gaussian, Inc.),
 the Gaussian(R) 94 system (copyright 1995, Gaussian, Inc.),
 the Gaussian 92(TM) system (copyright 1992, Gaussian, Inc.),
 the Gaussian 90(TM) system (copyright 1990, Gaussian, Inc.),
 the Gaussian 88(TM) system (copyright 1988, Gaussian, Inc.),
 the Gaussian 86(TM) system (copyright 1986, Carnegie Mellon
 University), and the Gaussian 82(TM) system (copyright 1983,
 Carnegie Mellon University). Gaussian is a federally registered
 trademark of Gaussian, Inc.
  
 This software contains proprietary and confidential information,
 including trade secrets, belonging to Gaussian, Inc.
  
 This software is provided under written license and may be
 used, copied, transmitted, or stored only in accord with that
 written license.
  
 The following legend is applicable only to US Government
 contracts under FAR:
  
                    RESTRICTED RIGHTS LEGEND
  
 Use, reproduction and disclosure by the US Government is
 subject to restrictions as set forth in subparagraphs (a)
 and (c) of the Commercial Computer Software - Restricted
 Rights clause in FAR 52.227-19.
  
 Gaussian, Inc.
 340 Quinnipiac St., Bldg. 40, Wallingford CT 06492
  
  
 ---------------------------------------------------------------
 Warning -- This program may not be used in any manner that
 competes with the business of Gaussian, Inc. or will provide
 assistance to any competitor of Gaussian, Inc.  The licensee
 of this program is prohibited from giving any competitor of
 Gaussian, Inc. access to this program.  By using this program,
 the user acknowledges that Gaussian, Inc. is engaged in the
 business of creating and licensing software in the field of
 computational chemistry and represents and warrants to the
 licensee that it is not a competitor of Gaussian, Inc. and that
 it will not use this program in any manner prohibited above.
 ---------------------------------------------------------------
  

 Cite this work as:
 Gaussian 16, Revision A.03,
 M. J. Frisch, G. W. Trucks, H. B. Schlegel, G. E. Scuseria, 
 M. A. Robb, J. R. Cheeseman, G. Scalmani, V. Barone, 
 G. A. Petersson, H. Nakatsuji, X. Li, M. Caricato, A. V. Marenich, 
 J. Bloino, B. G. Janesko, R. Gomperts, B. Mennucci, H. P. Hratchian, 
 J. V. Ortiz, A. F. Izmaylov, J. L. Sonnenberg, D. Williams-Young, 
 F. Ding, F. Lipparini, F. Egidi, J. Goings, B. Peng, A. Petrone, 
 T. Henderson, D. Ranasinghe, V. G. Zakrzewski, J. Gao, N. Rega, 
 G. Zheng, W. Liang, M. Hada, M. Ehara, K. Toyota, R. Fukuda, 
 J. Hasegawa, M. Ishida, T. Nakajima, Y. Honda, O. Kitao, H. Nakai, 
 T. Vreven, K. Throssell, J. A. Montgomery, Jr., J. E. Peralta, 
 F. Ogliaro, M. J. Bearpark, J. J. Heyd, E. N. Brothers, K. N. Kudin, 
 V. N. Staroverov, T. A. Keith, R. Kobayashi, J. Normand, 
 K. Raghavachari, A. P. Rendell, J. C. Burant, S. S. Iyengar, 
 J. Tomasi, M. Cossi, J. M. Millam, M. Klene, C. Adamo, R. Cammi, 
 J. W. Ochterski, R. L. Martin, K. Morokuma, O. Farkas, 
 J. B. Foresman, and D. J. Fox, Gaussian, Inc., Wallingford CT, 2016.
 
 ******************************************
 Gaussian 16:  ES64L-G16RevA.03 25-Dec-2016
                22-Sep-2023 
 ******************************************
 %nprocshared=2
 Will use up to    2 processors via shared memory.
 %mem=2GB
 ----------------
 # 6-31g(d) wb97x
 ----------------
 1/38=1,172=1/1;
 2/12=2,17=6,18=5,40=1/2;
 3/5=1,6=6,7=1,11=2,25=1,30=1,74=-57/1,2,3;
 4//1;
 5/5=2,38=5/2;
 6/7=2,8=2,9=2,10=2,28=1/1;
 99/5=1,9=1/99;
 -----------------------
 tmpdir/M2_conf_1_16.gjf
 -----------------------
 Symbolic Z-matrix:
 Charge =  0 Multiplicity = 1
 C                     0.        0.        0. 
 C                     1.4987    0.        0. 
 H                     1.83689   0.        1.04767 
 H                    -0.47432  -0.93911   0.40037 
 O                    -0.62897   0.92095  -0.35999 
 H                     1.95214   0.85137  -0.53967 
 H                     1.84331  -0.95876  -0.40185 
 
                          Input orientation:                          
 ---------------------------------------------------------------------
 Center     Atomic      Atomic             Coordinates (Angstroms)
 Number     Number       Type             X           Y           Z
 ---------------------------------------------------------------------
      1          6           0        0.000000    0.000000    0.000000
      2          6           0        1.498700    0.000000    0.000000
      3          1           0        1.836890    0.000000    1.047670
      4          1           0       -0.474320   -0.939110    0.400370
      5          8           0       -0.628970    0.920950   -0.359990
      6          1           0        1.952140    0.851370   -0.539670
      7          1           0        1.843310   -0.958760   -0.401850
 ---------------------------------------------------------------------
                    Distance matrix (angstroms):
                    1          2          3          4          5
     1  C    0.000000
     2  C    1.498700   0.000000
     3  H    2.114658   1.100902   0.000000
     4  H    1.125701   2.221493   2.577327   0.000000
     5  O    1.171898   2.346214   2.984983   2.015412   0.000000
     6  H    2.197026   1.105297   1.804927   3.158671   2.588292
     7  H    2.116246   1.095199   1.737921   2.452621   3.105999
                    6          7
     6  H    0.000000
     7  H    1.818628   0.000000
 Stoichiometry    C2H4O
 Framework group  C1[X(C2H4O)]
 Deg. of freedom    15
 Full point group                 C1      NOp   1
 Largest Abelian subgroup         C1      NOp   1
 Largest concise Abelian subgroup C1      NOp   1
                         Standard orientation:                         
 ---------------------------------------------------------------------
 Center     Atomic      Atomic             Coordinates (Angstroms)
 Number     Number       Type             X           Y           Z
 ---------------------------------------------------------------------
      1          6           0        0.249706    0.401330   -0.008981
      2          6           0       -1.143744   -0.150375   -0.004356
      3          1           0       -1.600937    0.093817    0.966895
      4          1           0        0.314995    1.525037    0.005942
      5          8           0        1.198512   -0.286392    0.003233
      6          1           0       -1.200645   -1.239908   -0.181453
      7          1           0       -1.737284    0.406465   -0.737226
 ---------------------------------------------------------------------
 Rotational constants (GHZ):          55.7316126          10.5831320           9.3984280
 Standard basis: 6-31G(d) (6D, 7F)
 There are    53 symmetry adapted cartesian basis functions of A   symmetry.
 There are    53 symmetry adapted basis functions of A   symmetry.
    53 basis functions,   100 primitive gaussians,    53 cartesian basis functions
    12 alpha electrons       12 beta electrons
       nuclear repulsion energy        70.5591479190 Hartrees.
 NAtoms=    7 NActive=    7 NUniq=    7 SFac= 1.00D+00 NAtFMM=   60 NAOKFM=F Big=F
 Integral buffers will be    131072 words long.
 Raffenetti 2 integral format.
 Two-electron integral symmetry is turned on.
 One-electron integrals computed using PRISM.
 NBasis=    53 RedAO= T EigKep=  5.19D-03  NBF=    53
 NBsUse=    53 1.00D-06 EigRej= -1.00D+00 NBFU=    53
 ExpMin= 1.61D-01 ExpMax= 5.48D+03 ExpMxC= 8.25D+02 IAcc=3 IRadAn=         5 AccDes= 0.00D+00
 Harris functional with IExCor= 4538 and IRadAn=       5 diagonalized for initial guess.
 HarFok:  IExCor= 4538 AccDes= 0.00D+00 IRadAn=         5 IDoV= 1 UseB2=F ITyADJ=14
 ICtDFT=  3500011 ScaDFX=  1.000000  1.000000  1.000000  1.000000
 FoFCou: FMM=F IPFlag=           0 FMFlag=      100000 FMFlg1=           0
         NFxFlg=           0 DoJE=T BraDBF=F KetDBF=T FulRan=T
         wScrn=  0.000000 ICntrl=       500 IOpCl=  0 I1Cent=   200000004 NGrid=           0
         NMat0=    1 NMatS0=      1 NMatT0=    0 NMatD0=    1 NMtDS0=    0 NMtDT0=    0
 Petite list used in FoFCou.
 Keep R1 ints in memory in canonical form, NReq=3800804.
 Requested convergence on RMS density matrix=1.00D-08 within 128 cycles.
 Requested convergence on MAX density matrix=1.00D-06.
 Requested convergence on             energy=1.00D-06.
 No special actions if energy rises.
 Integral accuracy reduced to 1.0D-05 until final iterations.
 Initial convergence to 1.0D-05 achieved.  Increase integral accuracy.
 SCF Done:  E(RwB97X) =  -153.782297642     A.U. after   14 cycles
            NFock= 14  Conv=0.56D-08     -V/T= 2.0082

 **********************************************************************

            Population analysis using the SCF density.

 **********************************************************************

 Orbital symmetries:
       Occupied  (A) (A) (A) (A) (A) (A) (A) (A) (A) (A) (A) (A)
       Virtual   (A) (A) (A) (A) (A) (A) (A) (A) (A) (A) (A) (A)
                 (A) (A) (A) (A) (A) (A) (A) (A) (A) (A) (A) (A)
                 (A) (A) (A) (A) (A) (A) (A) (A) (A) (A) (A) (A)
                 (A) (A) (A) (A) (A)
 The electronic state is 1-A.
 Alpha  occ. eigenvalues --  -19.21563 -10.36200 -10.27697  -1.19330  -0.88027
 Alpha  occ. eigenvalues --   -0.69565  -0.59381  -0.55698  -0.54836  -0.50470
 Alpha  occ. eigenvalues --   -0.47247  -0.35422
 Alpha virt. eigenvalues --    0.08859   0.20532   0.22277   0.25267   0.25827
 Alpha virt. eigenvalues --    0.35410   0.38545   0.62962   0.65487   0.69296
 Alpha virt. eigenvalues --    0.70467   0.79121   0.85364   0.87229   0.95067
 Alpha virt. eigenvalues --    0.96199   0.98268   1.04044   1.06277   1.10612
 Alpha virt. eigenvalues --    1.19803   1.34736   1.49403   1.60246   1.64539
 Alpha virt. eigenvalues --    1.79683   1.92002   1.93320   1.96056   2.17827
 Alpha virt. eigenvalues --    2.22361   2.24330   2.40422   2.49274   2.68827
 Alpha virt. eigenvalues --    2.72969   3.00098   3.10593   3.96130   4.20080
 Alpha virt. eigenvalues --    4.45410
          Condensed to atoms (all electrons):
               1          2          3          4          5          6
     1  C    4.532925   0.314484  -0.022618   0.354678   0.615444  -0.020466
     2  C    0.314484   5.374597   0.358494  -0.113112  -0.088484   0.364612
     3  H   -0.022618   0.358494   0.516528   0.004016   0.000533  -0.017072
     4  H    0.354678  -0.113112   0.004016   0.691759  -0.056097   0.004179
     5  O    0.615444  -0.088484   0.000533  -0.056097   7.875740   0.004349
     6  H   -0.020466   0.364612  -0.017072   0.004179   0.004349   0.485420
     7  H   -0.022636   0.350860  -0.026059   0.005434   0.002494  -0.017474
               7
     1  C   -0.022636
     2  C    0.350860
     3  H   -0.026059
     4  H    0.005434
     5  O    0.002494
     6  H   -0.017474
     7  H    0.531915
 Mulliken charges:
               1
     1  C    0.248189
     2  C   -0.561451
     3  H    0.186179
     4  H    0.109144
     5  O   -0.353978
     6  H    0.196452
     7  H    0.175466
 Sum of Mulliken charges =  -0.00000
 Mulliken charges with hydrogens summed into heavy atoms:
               1
     1  C    0.357332
     2  C   -0.003355
     5  O   -0.353978
 Electronic spatial extent (au):  <R**2>=            163.4274
 Charge=             -0.0000 electrons
 Dipole moment (field-independent basis, Debye):
    X=             -2.2735    Y=              1.1019    Z=              0.0437  Tot=              2.5269
 Quadrupole moment (field-independent basis, Debye-Ang):
   XX=            -20.5517   YY=            -17.6246   ZZ=            -17.6395
   XY=              0.9112   XZ=             -0.1094   YZ=              0.0297
 Traceless Quadrupole moment (field-independent basis, Debye-Ang):
   XX=             -1.9465   YY=              0.9807   ZZ=              0.9658
   XY=              0.9112   XZ=             -0.1094   YZ=              0.0297
 Octapole moment (field-independent basis, Debye-Ang**2):
  XXX=              0.1570  YYY=             -1.2809  ZZZ=              0.4672  XYY=              0.7888
  XXY=              0.6929  XXZ=              0.1060  XZZ=              1.0496  YZZ=              0.0010
  YYZ=             -0.3091  XYZ=              0.0423
 Hexadecapole moment (field-independent basis, Debye-Ang**3):
 XXXX=           -143.2792 YYYY=            -41.1856 ZZZZ=            -21.9231 XXXY=             -1.8410
 XXXZ=             -0.1146 YYYX=              0.6411 YYYZ=              0.3581 ZZZX=             -0.7566
 ZZZY=             -0.0345 XXYY=            -29.7714 XXZZ=            -24.9065 YYZZ=            -11.2055
 XXYZ=             -0.2450 YYXZ=              0.4825 ZZXY=             -1.1888
 N-N= 7.055914791898D+01 E-N=-5.002565710692D+02  KE= 1.525273528391D+02
 1\1\GINC-NODE67\SP\RwB97X\6-31G(d)\C2H4O1\YANZ\22-Sep-2023\0\\# 6-31g(
 d) wb97x\\tmpdir/M2_conf_1_16.gjf\\0,1\C,0,0.,0.,0.\C,0,1.4987,0.,0.\H
 ,0,1.83689,0.,1.04767\H,0,-0.47432,-0.93911,0.40037\O,0,-0.62897,0.920
 95,-0.35999\H,0,1.95214,0.85137,-0.53967\H,0,1.84331,-0.95876,-0.40185
 \\Version=ES64L-G16RevA.03\State=1-A\HF=-153.7822976\RMSD=5.553e-09\Di
 pole=0.6721357,-0.6724893,0.2903647\Quadrupole=-0.6880301,0.0388946,0.
 6491354,1.1741254,-0.4008571,0.2222878\PG=C01 [X(C2H4O1)]\\@


 REALITY IS FOR PEOPLE WHO CAN'T FACE SCIENCE FICTION.
 Job cpu time:       0 days  0 hours  0 minutes 12.6 seconds.
 Elapsed time:       0 days  0 hours  0 minutes  6.4 seconds.
 File lengths (MBytes):  RWF=      6 Int=      0 D2E=      0 Chk=      1 Scr=      1
 Normal termination of Gaussian 16 at Fri Sep 22 16:31:30 2023.
