 Entering Gaussian System, Link 0=g16
 Initial command:
 /share/apps/gaussian/g16/l1.exe "/tmp/55568.mgr/Gau-356462.inp" -scrdir="/tmp/55568.mgr/"
 Entering Link 1 = /share/apps/gaussian/g16/l1.exe PID=    356463.
  
 Copyright (c) 1988,1990,1992,1993,1995,1998,2003,2009,2016,
            Gaussian, Inc.  All Rights Reserved.
  
 This is part of the Gaussian(R) 16 program.  It is based on
 the Gaussian(R) 09 system (copyright 2009, Gaussian, Inc.),
 the Gaussian(R) 03 system (copyright 2003, Gaussian, Inc.),
 the Gaussian(R) 98 system (copyright 1998, Gaussian, Inc.),
 the Gaussian(R) 94 system (copyright 1995, Gaussian, Inc.),
 the Gaussian 92(TM) system (copyright 1992, Gaussian, Inc.),
 the Gaussian 90(TM) system (copyright 1990, Gaussian, Inc.),
 the Gaussian 88(TM) system (copyright 1988, Gaussian, Inc.),
 the Gaussian 86(TM) system (copyright 1986, Carnegie Mellon
 University), and the Gaussian 82(TM) system (copyright 1983,
 Carnegie Mellon University). Gaussian is a federally registered
 trademark of Gaussian, Inc.
  
 This software contains proprietary and confidential information,
 including trade secrets, belonging to Gaussian, Inc.
  
 This software is provided under written license and may be
 used, copied, transmitted, or stored only in accord with that
 written license.
  
 The following legend is applicable only to US Government
 contracts under FAR:
  
                    RESTRICTED RIGHTS LEGEND
  
 Use, reproduction and disclosure by the US Government is
 subject to restrictions as set forth in subparagraphs (a)
 and (c) of the Commercial Computer Software - Restricted
 Rights clause in FAR 52.227-19.
  
 Gaussian, Inc.
 340 Quinnipiac St., Bldg. 40, Wallingford CT 06492
  
  
 ---------------------------------------------------------------
 Warning -- This program may not be used in any manner that
 competes with the business of Gaussian, Inc. or will provide
 assistance to any competitor of Gaussian, Inc.  The licensee
 of this program is prohibited from giving any competitor of
 Gaussian, Inc. access to this program.  By using this program,
 the user acknowledges that Gaussian, Inc. is engaged in the
 business of creating and licensing software in the field of
 computational chemistry and represents and warrants to the
 licensee that it is not a competitor of Gaussian, Inc. and that
 it will not use this program in any manner prohibited above.
 ---------------------------------------------------------------
  

 Cite this work as:
 Gaussian 16, Revision A.03,
 M. J. Frisch, G. W. Trucks, H. B. Schlegel, G. E. Scuseria, 
 M. A. Robb, J. R. Cheeseman, G. Scalmani, V. Barone, 
 G. A. Petersson, H. Nakatsuji, X. Li, M. Caricato, A. V. Marenich, 
 J. Bloino, B. G. Janesko, R. Gomperts, B. Mennucci, H. P. Hratchian, 
 J. V. Ortiz, A. F. Izmaylov, J. L. Sonnenberg, D. Williams-Young, 
 F. Ding, F. Lipparini, F. Egidi, J. Goings, B. Peng, A. Petrone, 
 T. Henderson, D. Ranasinghe, V. G. Zakrzewski, J. Gao, N. Rega, 
 G. Zheng, W. Liang, M. Hada, M. Ehara, K. Toyota, R. Fukuda, 
 J. Hasegawa, M. Ishida, T. Nakajima, Y. Honda, O. Kitao, H. Nakai, 
 T. Vreven, K. Throssell, J. A. Montgomery, Jr., J. E. Peralta, 
 F. Ogliaro, M. J. Bearpark, J. J. Heyd, E. N. Brothers, K. N. Kudin, 
 V. N. Staroverov, T. A. Keith, R. Kobayashi, J. Normand, 
 K. Raghavachari, A. P. Rendell, J. C. Burant, S. S. Iyengar, 
 J. Tomasi, M. Cossi, J. M. Millam, M. Klene, C. Adamo, R. Cammi, 
 J. W. Ochterski, R. L. Martin, K. Morokuma, O. Farkas, 
 J. B. Foresman, and D. J. Fox, Gaussian, Inc., Wallingford CT, 2016.
 
 ******************************************
 Gaussian 16:  ES64L-G16RevA.03 25-Dec-2016
                22-Sep-2023 
 ******************************************
 %nprocshared=2
 Will use up to    2 processors via shared memory.
 %mem=2GB
 ----------------
 # 6-31g(d) wb97x
 ----------------
 1/38=1,172=1/1;
 2/12=2,17=6,18=5,40=1/2;
 3/5=1,6=6,7=1,11=2,25=1,30=1,74=-57/1,2,3;
 4//1;
 5/5=2,38=5/2;
 6/7=2,8=2,9=2,10=2,28=1/1;
 99/5=1,9=1/99;
 ----------------------
 tmpdir/M2_conf_1_5.gjf
 ----------------------
 Symbolic Z-matrix:
 Charge = -1 Multiplicity = 1
 O                     0.        0.        0. 
 C                     1.2409    0.        0. 
 C                     1.8993    0.        1.40873 
 O                     2.08382  -0.00404  -0.92505 
 H                     2.9839   -0.02558   1.40641 
 O                     1.27207  -0.00448   2.39864 
 
                          Input orientation:                          
 ---------------------------------------------------------------------
 Center     Atomic      Atomic             Coordinates (Angstroms)
 Number     Number       Type             X           Y           Z
 ---------------------------------------------------------------------
      1          8           0        0.000000    0.000000    0.000000
      2          6           0        1.240900    0.000000    0.000000
      3          6           0        1.899300    0.000000    1.408730
      4          8           0        2.083820   -0.004040   -0.925050
      5          1           0        2.983900   -0.025580    1.406410
      6          8           0        1.272070   -0.004480    2.398640
 ---------------------------------------------------------------------
                    Distance matrix (angstroms):
                    1          2          3          4          5
     1  O    0.000000
     2  C    1.240900   0.000000
     3  C    2.364712   1.554995   0.000000
     4  O    2.279921   1.251498   2.341067   0.000000
     5  H    3.298834   2.239797   1.084904   2.499263   0.000000
     6  O    2.715079   2.398847   1.171904   3.421382   1.978719
                    6
     6  O    0.000000
 Stoichiometry    C2HO3(1-)
 Framework group  C1[X(C2HO3)]
 Deg. of freedom    12
 Full point group                 C1      NOp   1
 Largest Abelian subgroup         C1      NOp   1
 Largest concise Abelian subgroup C1      NOp   1
                         Standard orientation:                         
 ---------------------------------------------------------------------
 Center     Atomic      Atomic             Coordinates (Angstroms)
 Number     Number       Type             X           Y           Z
 ---------------------------------------------------------------------
      1          8           0       -0.617584    1.300518    0.001519
      2          6           0       -0.586742    0.060006   -0.001946
      3          6           0        0.837917   -0.563172   -0.004698
      4          8           0       -1.490553   -0.805655    0.000340
      5          1           0        0.862573   -1.647561    0.017855
      6          8           0        1.811934    0.088456    0.000892
 ---------------------------------------------------------------------
 Rotational constants (GHZ):          11.4658127           4.7021037           3.3346231
 Standard basis: 6-31G(d) (6D, 7F)
 There are    77 symmetry adapted cartesian basis functions of A   symmetry.
 There are    77 symmetry adapted basis functions of A   symmetry.
    77 basis functions,   144 primitive gaussians,    77 cartesian basis functions
    19 alpha electrons       19 beta electrons
       nuclear repulsion energy       153.5591669993 Hartrees.
 NAtoms=    6 NActive=    6 NUniq=    6 SFac= 1.00D+00 NAtFMM=   60 NAOKFM=F Big=F
 Integral buffers will be    131072 words long.
 Raffenetti 2 integral format.
 Two-electron integral symmetry is turned on.
 One-electron integrals computed using PRISM.
 NBasis=    77 RedAO= T EigKep=  2.42D-03  NBF=    77
 NBsUse=    77 1.00D-06 EigRej= -1.00D+00 NBFU=    77
 ExpMin= 1.61D-01 ExpMax= 5.48D+03 ExpMxC= 8.25D+02 IAcc=3 IRadAn=         5 AccDes= 0.00D+00
 Harris functional with IExCor= 4538 and IRadAn=       5 diagonalized for initial guess.
 HarFok:  IExCor= 4538 AccDes= 0.00D+00 IRadAn=         5 IDoV= 1 UseB2=F ITyADJ=14
 ICtDFT=  3500011 ScaDFX=  1.000000  1.000000  1.000000  1.000000
 FoFCou: FMM=F IPFlag=           0 FMFlag=      100000 FMFlg1=           0
         NFxFlg=           0 DoJE=T BraDBF=F KetDBF=T FulRan=T
         wScrn=  0.000000 ICntrl=       500 IOpCl=  0 I1Cent=   200000004 NGrid=           0
         NMat0=    1 NMatS0=      1 NMatT0=    0 NMatD0=    1 NMtDS0=    0 NMtDT0=    0
 Petite list used in FoFCou.
 Keep R1 ints in memory in canonical form, NReq=10822253.
 Requested convergence on RMS density matrix=1.00D-08 within 128 cycles.
 Requested convergence on MAX density matrix=1.00D-06.
 Requested convergence on             energy=1.00D-06.
 No special actions if energy rises.
 Integral accuracy reduced to 1.0D-05 until final iterations.
 Initial convergence to 1.0D-05 achieved.  Increase integral accuracy.
 SCF Done:  E(RwB97X) =  -302.433574185     A.U. after   17 cycles
            NFock= 17  Conv=0.30D-08     -V/T= 2.0072

 **********************************************************************

            Population analysis using the SCF density.

 **********************************************************************

 Orbital symmetries:
       Occupied  (A) (A) (A) (A) (A) (A) (A) (A) (A) (A) (A) (A)
                 (A) (A) (A) (A) (A) (A) (A)
       Virtual   (A) (A) (A) (A) (A) (A) (A) (A) (A) (A) (A) (A)
                 (A) (A) (A) (A) (A) (A) (A) (A) (A) (A) (A) (A)
                 (A) (A) (A) (A) (A) (A) (A) (A) (A) (A) (A) (A)
                 (A) (A) (A) (A) (A) (A) (A) (A) (A) (A) (A) (A)
                 (A) (A) (A) (A) (A) (A) (A) (A) (A) (A)
 The electronic state is 1-A.
 Alpha  occ. eigenvalues --  -19.04074 -18.94134 -18.93857 -10.16072 -10.14089
 Alpha  occ. eigenvalues --   -1.01613  -0.93245  -0.84865  -0.57075  -0.44823
 Alpha  occ. eigenvalues --   -0.38651  -0.34833  -0.34309  -0.29228  -0.27465
 Alpha  occ. eigenvalues --   -0.20950  -0.13357  -0.12532  -0.11163
 Alpha virt. eigenvalues --    0.24386   0.41354   0.42695   0.53551   0.59872
 Alpha virt. eigenvalues --    0.64100   0.72735   0.81346   0.90954   0.91660
 Alpha virt. eigenvalues --    0.97996   1.00096   1.03056   1.07640   1.11792
 Alpha virt. eigenvalues --    1.14647   1.18309   1.24671   1.25394   1.31302
 Alpha virt. eigenvalues --    1.32560   1.37301   1.40692   1.43228   1.46797
 Alpha virt. eigenvalues --    1.66148   1.71241   1.76761   1.84485   1.89055
 Alpha virt. eigenvalues --    1.96035   2.01999   2.06557   2.12406   2.16813
 Alpha virt. eigenvalues --    2.17974   2.21365   2.23507   2.30844   2.38764
 Alpha virt. eigenvalues --    2.41772   2.44657   2.59596   2.72500   2.73391
 Alpha virt. eigenvalues --    2.90352   2.93640   3.10062   3.21117   3.25274
 Alpha virt. eigenvalues --    3.28045   3.41618   3.50624   4.06025   4.33679
 Alpha virt. eigenvalues --    4.38347   4.69780   4.83462
          Condensed to atoms (all electrons):
               1          2          3          4          5          6
     1  O    8.265238   0.526670  -0.118342  -0.080080   0.006039   0.006057
     2  C    0.526670   4.428333   0.287270   0.460965  -0.084580  -0.061926
     3  C   -0.118342   0.287270   5.048922  -0.120840   0.268711   0.502499
     4  O   -0.080080   0.460965  -0.120840   8.341502   0.026534   0.003750
     5  H    0.006039  -0.084580   0.268711   0.026534   0.794360  -0.059712
     6  O    0.006057  -0.061926   0.502499   0.003750  -0.059712   7.995612
 Mulliken charges:
               1
     1  O   -0.605582
     2  C    0.443267
     3  C    0.131779
     4  O   -0.631831
     5  H    0.048647
     6  O   -0.386279
 Sum of Mulliken charges =  -1.00000
 Mulliken charges with hydrogens summed into heavy atoms:
               1
     1  O   -0.605582
     2  C    0.443267
     3  C    0.180426
     4  O   -0.631831
     6  O   -0.386279
 Electronic spatial extent (au):  <R**2>=            354.3005
 Charge=             -1.0000 electrons
 Dipole moment (field-independent basis, Debye):
    X=              2.5688    Y=             -1.9257    Z=             -0.0136  Tot=              3.2105
 Quadrupole moment (field-independent basis, Debye-Ang):
   XX=            -41.7682   YY=            -35.5078   ZZ=            -26.8398
   XY=             -2.3357   XZ=              0.0005   YZ=              0.0005
 Traceless Quadrupole moment (field-independent basis, Debye-Ang):
   XX=             -7.0629   YY=             -0.8026   ZZ=              7.8655
   XY=             -2.3357   XZ=              0.0005   YZ=              0.0005
 Octapole moment (field-independent basis, Debye-Ang**2):
  XXX=             -0.5224  YYY=             -2.6568  ZZZ=              0.0014  XYY=              6.8772
  XXY=              4.0216  XXZ=             -0.0359  XZZ=              0.8196  YZZ=              0.5945
  YYZ=             -0.0075  XYZ=              0.0184
 Hexadecapole moment (field-independent basis, Debye-Ang**3):
 XXXX=           -302.2309 YYYY=           -141.9540 ZZZZ=            -21.1920 XXXY=             -5.7447
 XXXZ=             -0.0238 YYYX=              3.2631 YYYZ=              0.0008 ZZZX=              0.0030
 ZZZY=              0.0207 XXYY=            -71.9807 XXZZ=            -45.4073 YYZZ=            -25.2152
 XXYZ=              0.0216 YYXZ=              0.0112 ZZXY=              0.4883
 N-N= 1.535591669993D+02 E-N=-1.028016639856D+03  KE= 3.002857347746D+02
 1\1\GINC-NODE67\SP\RwB97X\6-31G(d)\C2H1O3(1-)\YANZ\22-Sep-2023\0\\# 6-
 31g(d) wb97x\\tmpdir/M2_conf_1_5.gjf\\-1,1\O,0,0.,0.,0.\C,0,1.2409,0.,
 0.\C,0,1.8993,0.,1.40873\O,0,2.08382,-0.00404,-0.92505\H,0,2.9839,-0.0
 2558,1.40641\O,0,1.27207,-0.00448,2.39864\\Version=ES64L-G16RevA.03\St
 ate=1-A\HF=-302.4335742\RMSD=2.951e-09\Dipole=0.7825066,0.0025086,0.99
 15052\Quadrupole=-0.5132089,5.8477617,-5.3345527,0.0170492,1.6187632,0
 .0023585\PG=C01 [X(C2H1O3)]\\@


 JUST WHEN YOU THINK YOU'VE GOT THE WORLD ON A STRING,
 YOU FIND OUT IT'S YOUR LEASH.
 Job cpu time:       0 days  0 hours  0 minutes 19.5 seconds.
 Elapsed time:       0 days  0 hours  0 minutes  9.8 seconds.
 File lengths (MBytes):  RWF=      6 Int=      0 D2E=      0 Chk=      1 Scr=      1
 Normal termination of Gaussian 16 at Fri Sep 22 16:31:39 2023.
