 Entering Gaussian System, Link 0=g16
 Initial command:
 /share/apps/gaussian/g16/l1.exe "/tmp/55568.mgr/Gau-353628.inp" -scrdir="/tmp/55568.mgr/"
 Entering Link 1 = /share/apps/gaussian/g16/l1.exe PID=    353629.
  
 Copyright (c) 1988,1990,1992,1993,1995,1998,2003,2009,2016,
            Gaussian, Inc.  All Rights Reserved.
  
 This is part of the Gaussian(R) 16 program.  It is based on
 the Gaussian(R) 09 system (copyright 2009, Gaussian, Inc.),
 the Gaussian(R) 03 system (copyright 2003, Gaussian, Inc.),
 the Gaussian(R) 98 system (copyright 1998, Gaussian, Inc.),
 the Gaussian(R) 94 system (copyright 1995, Gaussian, Inc.),
 the Gaussian 92(TM) system (copyright 1992, Gaussian, Inc.),
 the Gaussian 90(TM) system (copyright 1990, Gaussian, Inc.),
 the Gaussian 88(TM) system (copyright 1988, Gaussian, Inc.),
 the Gaussian 86(TM) system (copyright 1986, Carnegie Mellon
 University), and the Gaussian 82(TM) system (copyright 1983,
 Carnegie Mellon University). Gaussian is a federally registered
 trademark of Gaussian, Inc.
  
 This software contains proprietary and confidential information,
 including trade secrets, belonging to Gaussian, Inc.
  
 This software is provided under written license and may be
 used, copied, transmitted, or stored only in accord with that
 written license.
  
 The following legend is applicable only to US Government
 contracts under FAR:
  
                    RESTRICTED RIGHTS LEGEND
  
 Use, reproduction and disclosure by the US Government is
 subject to restrictions as set forth in subparagraphs (a)
 and (c) of the Commercial Computer Software - Restricted
 Rights clause in FAR 52.227-19.
  
 Gaussian, Inc.
 340 Quinnipiac St., Bldg. 40, Wallingford CT 06492
  
  
 ---------------------------------------------------------------
 Warning -- This program may not be used in any manner that
 competes with the business of Gaussian, Inc. or will provide
 assistance to any competitor of Gaussian, Inc.  The licensee
 of this program is prohibited from giving any competitor of
 Gaussian, Inc. access to this program.  By using this program,
 the user acknowledges that Gaussian, Inc. is engaged in the
 business of creating and licensing software in the field of
 computational chemistry and represents and warrants to the
 licensee that it is not a competitor of Gaussian, Inc. and that
 it will not use this program in any manner prohibited above.
 ---------------------------------------------------------------
  

 Cite this work as:
 Gaussian 16, Revision A.03,
 M. J. Frisch, G. W. Trucks, H. B. Schlegel, G. E. Scuseria, 
 M. A. Robb, J. R. Cheeseman, G. Scalmani, V. Barone, 
 G. A. Petersson, H. Nakatsuji, X. Li, M. Caricato, A. V. Marenich, 
 J. Bloino, B. G. Janesko, R. Gomperts, B. Mennucci, H. P. Hratchian, 
 J. V. Ortiz, A. F. Izmaylov, J. L. Sonnenberg, D. Williams-Young, 
 F. Ding, F. Lipparini, F. Egidi, J. Goings, B. Peng, A. Petrone, 
 T. Henderson, D. Ranasinghe, V. G. Zakrzewski, J. Gao, N. Rega, 
 G. Zheng, W. Liang, M. Hada, M. Ehara, K. Toyota, R. Fukuda, 
 J. Hasegawa, M. Ishida, T. Nakajima, Y. Honda, O. Kitao, H. Nakai, 
 T. Vreven, K. Throssell, J. A. Montgomery, Jr., J. E. Peralta, 
 F. Ogliaro, M. J. Bearpark, J. J. Heyd, E. N. Brothers, K. N. Kudin, 
 V. N. Staroverov, T. A. Keith, R. Kobayashi, J. Normand, 
 K. Raghavachari, A. P. Rendell, J. C. Burant, S. S. Iyengar, 
 J. Tomasi, M. Cossi, J. M. Millam, M. Klene, C. Adamo, R. Cammi, 
 J. W. Ochterski, R. L. Martin, K. Morokuma, O. Farkas, 
 J. B. Foresman, and D. J. Fox, Gaussian, Inc., Wallingford CT, 2016.
 
 ******************************************
 Gaussian 16:  ES64L-G16RevA.03 25-Dec-2016
                22-Sep-2023 
 ******************************************
 %nprocshared=2
 Will use up to    2 processors via shared memory.
 %mem=2GB
 ----------------
 # 6-31g(d) wb97x
 ----------------
 1/38=1,172=1/1;
 2/12=2,17=6,18=5,40=1/2;
 3/5=1,6=6,7=1,11=2,25=1,30=1,74=-57/1,2,3;
 4//1;
 5/5=2,38=5/2;
 6/7=2,8=2,9=2,10=2,28=1/1;
 99/5=1,9=1/99;
 --------------------
 tmpdir/M2_ref_56.gjf
 --------------------
 Symbolic Z-matrix:
 Charge =  0 Multiplicity = 1
 C                     9.13883   29.23301   36.62413 
 C                     8.58256   30.50288   35.93176 
 O                     9.66123   31.431    35.94876 
 H                     8.31965   28.4932   36.7181 
 H                     10.06802   28.93908   36.00239 
 H                     9.46581   29.53373   37.63046 
 H                     7.67513   30.85302   36.41454 
 H                     8.38576   30.23446   34.87678 
 H                     9.75495   32.01043   35.15926 
 
                          Input orientation:                          
 ---------------------------------------------------------------------
 Center     Atomic      Atomic             Coordinates (Angstroms)
 Number     Number       Type             X           Y           Z
 ---------------------------------------------------------------------
      1          6           0        9.138830   29.233013   36.624130
      2          6           0        8.582564   30.502876   35.931757
      3          8           0        9.661228   31.431000   35.948758
      4          1           0        8.319649   28.493204   36.718098
      5          1           0       10.068022   28.939080   36.002387
      6          1           0        9.465810   29.533731   37.630456
      7          1           0        7.675128   30.853015   36.414543
      8          1           0        8.385764   30.234457   34.876776
      9          1           0        9.754950   32.010425   35.159257
 ---------------------------------------------------------------------
                    Distance matrix (angstroms):
                    1          2          3          4          5
     1  C    0.000000
     2  C    1.549634   0.000000
     3  O    2.358002   1.423102   0.000000
     4  H    1.107793   2.173992   3.319995   0.000000
     5  H    1.156010   2.158016   2.525475   1.941097   0.000000
     6  H    1.100018   2.145913   2.542819   1.796880   1.834906
     7  H    2.193344   1.085873   2.120287   2.465008   3.091757
     8  H    2.150173   1.106239   2.051260   2.535114   2.403122
     9  H    3.199918   2.060085   0.983783   4.106205   3.200319
                    6          7          8          9
     6  H    0.000000
     7  H    2.534856   0.000000
     8  H    3.039781   1.803426   0.000000
     9  H    3.510618   2.690911   2.260205   0.000000
 Stoichiometry    C2H6O
 Framework group  C1[X(C2H6O)]
 Deg. of freedom    21
 Full point group                 C1      NOp   1
 Largest Abelian subgroup         C1      NOp   1
 Largest concise Abelian subgroup C1      NOp   1
                         Standard orientation:                         
 ---------------------------------------------------------------------
 Center     Atomic      Atomic             Coordinates (Angstroms)
 Number     Number       Type             X           Y           Z
 ---------------------------------------------------------------------
      1          6           0        1.219220   -0.253070    0.022787
      2          6           0       -0.080298    0.590513   -0.008592
      3          8           0       -1.133635   -0.363164   -0.087330
      4          1           0        2.088022    0.433918    0.001869
      5          1           0        1.098800   -0.949427    0.937634
      6          1           0        1.225978   -0.865529   -0.890935
      7          1           0       -0.063441    1.315615   -0.816716
      8          1           0       -0.158291    1.098401    0.971067
      9          1           0       -1.955519   -0.152329    0.410552
 ---------------------------------------------------------------------
 Rotational constants (GHZ):          32.7507027           9.5349468           8.2473311
 Standard basis: 6-31G(d) (6D, 7F)
 There are    57 symmetry adapted cartesian basis functions of A   symmetry.
 There are    57 symmetry adapted basis functions of A   symmetry.
    57 basis functions,   108 primitive gaussians,    57 cartesian basis functions
    13 alpha electrons       13 beta electrons
       nuclear repulsion energy        81.2786494976 Hartrees.
 NAtoms=    9 NActive=    9 NUniq=    9 SFac= 1.00D+00 NAtFMM=   60 NAOKFM=F Big=F
 Integral buffers will be    131072 words long.
 Raffenetti 2 integral format.
 Two-electron integral symmetry is turned on.
 One-electron integrals computed using PRISM.
 NBasis=    57 RedAO= T EigKep=  6.15D-03  NBF=    57
 NBsUse=    57 1.00D-06 EigRej= -1.00D+00 NBFU=    57
 ExpMin= 1.61D-01 ExpMax= 5.48D+03 ExpMxC= 8.25D+02 IAcc=3 IRadAn=         5 AccDes= 0.00D+00
 Harris functional with IExCor= 4538 and IRadAn=       5 diagonalized for initial guess.
 HarFok:  IExCor= 4538 AccDes= 0.00D+00 IRadAn=         5 IDoV= 1 UseB2=F ITyADJ=14
 ICtDFT=  3500011 ScaDFX=  1.000000  1.000000  1.000000  1.000000
 FoFCou: FMM=F IPFlag=           0 FMFlag=      100000 FMFlg1=           0
         NFxFlg=           0 DoJE=T BraDBF=F KetDBF=T FulRan=T
         wScrn=  0.000000 ICntrl=       500 IOpCl=  0 I1Cent=   200000004 NGrid=           0
         NMat0=    1 NMatS0=      1 NMatT0=    0 NMatD0=    1 NMtDS0=    0 NMtDT0=    0
 Petite list used in FoFCou.
 Keep R1 ints in memory in canonical form, NReq=4494208.
 Requested convergence on RMS density matrix=1.00D-08 within 128 cycles.
 Requested convergence on MAX density matrix=1.00D-06.
 Requested convergence on             energy=1.00D-06.
 No special actions if energy rises.
 Integral accuracy reduced to 1.0D-05 until final iterations.
 Initial convergence to 1.0D-05 achieved.  Increase integral accuracy.
 SCF Done:  E(RwB97X) =  -154.979078639     A.U. after   13 cycles
            NFock= 13  Conv=0.27D-08     -V/T= 2.0103

 **********************************************************************

            Population analysis using the SCF density.

 **********************************************************************

 Orbital symmetries:
       Occupied  (A) (A) (A) (A) (A) (A) (A) (A) (A) (A) (A) (A)
                 (A)
       Virtual   (A) (A) (A) (A) (A) (A) (A) (A) (A) (A) (A) (A)
                 (A) (A) (A) (A) (A) (A) (A) (A) (A) (A) (A) (A)
                 (A) (A) (A) (A) (A) (A) (A) (A) (A) (A) (A) (A)
                 (A) (A) (A) (A) (A) (A) (A) (A)
 The electronic state is 1-A.
 Alpha  occ. eigenvalues --  -19.20204 -10.31175 -10.26122  -1.12667  -0.86458
 Alpha  occ. eigenvalues --   -0.72448  -0.62101  -0.57376  -0.48756  -0.48653
 Alpha  occ. eigenvalues --   -0.46064  -0.40983  -0.36504
 Alpha virt. eigenvalues --    0.17222   0.21078   0.25364   0.26196   0.27298
 Alpha virt. eigenvalues --    0.29137   0.31271   0.33046   0.63343   0.66867
 Alpha virt. eigenvalues --    0.67198   0.71636   0.76616   0.78708   0.91709
 Alpha virt. eigenvalues --    0.96966   0.97637   1.00657   1.02198   1.05958
 Alpha virt. eigenvalues --    1.09918   1.12976   1.14528   1.29044   1.46560
 Alpha virt. eigenvalues --    1.54435   1.59727   1.69472   1.89273   1.98972
 Alpha virt. eigenvalues --    2.04297   2.05990   2.16467   2.26553   2.29613
 Alpha virt. eigenvalues --    2.35653   2.39776   2.55366   2.63832   2.72862
 Alpha virt. eigenvalues --    2.94356   3.85142   4.28941   4.52378
          Condensed to atoms (all electrons):
               1          2          3          4          5          6
     1  C    5.136505   0.365215  -0.069930   0.360082   0.371528   0.381136
     2  C    0.365215   4.793787   0.241373  -0.031099  -0.033809  -0.034750
     3  O   -0.069930   0.241373   8.288758   0.003529   0.005370   0.001533
     4  H    0.360082  -0.031099   0.003529   0.558441  -0.014060  -0.026599
     5  H    0.371528  -0.033809   0.005370  -0.014060   0.544764  -0.025691
     6  H    0.381136  -0.034750   0.001533  -0.026599  -0.025691   0.532524
     7  H   -0.049561   0.380070  -0.035223   0.002649   0.004847  -0.004695
     8  H   -0.039206   0.383412  -0.036278  -0.000669  -0.007395   0.005396
     9  H    0.005411  -0.018726   0.243471  -0.000224  -0.000010  -0.000210
               7          8          9
     1  C   -0.049561  -0.039206   0.005411
     2  C    0.380070   0.383412  -0.018726
     3  O   -0.035223  -0.036278   0.243471
     4  H    0.002649  -0.000669  -0.000224
     5  H    0.004847  -0.007395  -0.000010
     6  H   -0.004695   0.005396  -0.000210
     7  H    0.600501  -0.044432   0.001255
     8  H   -0.044432   0.619264  -0.008105
     9  H    0.001255  -0.008105   0.374246
 Mulliken charges:
               1
     1  C   -0.461179
     2  C   -0.045473
     3  O   -0.642603
     4  H    0.147950
     5  H    0.154457
     6  H    0.171355
     7  H    0.144588
     8  H    0.128013
     9  H    0.402892
 Sum of Mulliken charges =  -0.00000
 Mulliken charges with hydrogens summed into heavy atoms:
               1
     1  C    0.012583
     2  C    0.227128
     3  O   -0.239711
 Electronic spatial extent (au):  <R**2>=            192.4165
 Charge=             -0.0000 electrons
 Dipole moment (field-independent basis, Debye):
    X=             -0.3802    Y=              1.2503    Z=              0.8934  Tot=              1.5831
 Quadrupole moment (field-independent basis, Debye-Ang):
   XX=            -17.2179   YY=            -20.3574   ZZ=            -19.4533
   XY=             -0.6283   XZ=             -2.2900   YZ=             -0.3737
 Traceless Quadrupole moment (field-independent basis, Debye-Ang):
   XX=              1.7916   YY=             -1.3479   ZZ=             -0.4438
   XY=             -0.6283   XZ=             -2.2900   YZ=             -0.3737
 Octapole moment (field-independent basis, Debye-Ang**2):
  XXX=            -16.3506  YYY=             -0.5844  ZZZ=              0.2902  XYY=             -1.1138
  XXY=              1.0524  XXZ=              3.3768  XZZ=             -2.3300  YZZ=             -0.5174
  YYZ=             -0.1589  XYZ=              0.3843
 Hexadecapole moment (field-independent basis, Debye-Ang**3):
 XXXX=           -129.6268 YYYY=            -58.8444 ZZZZ=            -33.1878 XXXY=              5.9857
 XXXZ=             -9.1252 YYYX=              1.8859 YYYZ=             -0.7233 ZZZX=             -1.7065
 ZZZY=             -0.1046 XXYY=            -35.3904 XXZZ=            -30.9090 YYZZ=            -13.9394
 XXYZ=             -0.5210 YYXZ=             -0.4297 ZZXY=             -0.3063
 N-N= 8.127864949761D+01 E-N=-5.242873766561D+02  KE= 1.534065383816D+02
 1\1\GINC-NODE67\SP\RwB97X\6-31G(d)\C2H6O1\YANZ\22-Sep-2023\0\\# 6-31g(
 d) wb97x\\tmpdir/M2_ref_56.gjf\\0,1\C,0,9.13883,29.233013,36.62413\C,0
 ,8.582564,30.502876,35.931757\O,0,9.661228,31.431,35.948758\H,0,8.3196
 4875,28.49320368,36.71809837\H,0,10.06802234,28.93908026,36.00238665\H
 ,0,9.46581,29.533731,37.630456\H,0,7.67512802,30.85301531,36.41454336\
 H,0,8.385764,30.234457,34.876776\H,0,9.75494996,32.01042504,35.1592566
 3\\Version=ES64L-G16RevA.03\State=1-A\HF=-154.9790786\RMSD=2.714e-09\D
 ipole=-0.3394516,0.0385415,-0.5207621\Quadrupole=-0.7151361,-0.0562431
 ,0.7713792,0.1352608,-0.84404,-1.8309176\PG=C01 [X(C2H6O1)]\\@


 ... I FELL INTO A REVERIE ... THE ATOMS WERE GAMBOLING BEFORE MY EYES
 ... I SAW HOW TWO SMALL ONES UNITED TO FORM A PAIR;
 HOW THE LARGER ONES SEIZED TWO OF THE SMALLER ONES;
 HOW STILL LARGER ONES KEPT HOLD OF THREE OR FOUR
 SMALLER ONES ... I SAW HOW THE LARGER ONES FORMED A CHAIN ...
 THIS WAS THE ORIGIN OF THE STRUCTURE THEORY.

                                   -- C.F.KEKULE VON STRADONITZ
 Job cpu time:       0 days  0 hours  0 minutes 16.0 seconds.
 Elapsed time:       0 days  0 hours  0 minutes  8.1 seconds.
 File lengths (MBytes):  RWF=      6 Int=      0 D2E=      0 Chk=      1 Scr=      1
 Normal termination of Gaussian 16 at Fri Sep 22 16:29:46 2023.
