 Entering Gaussian System, Link 0=g16
 Initial command:
 /share/apps/gaussian/g16/l1.exe "/tmp/55568.mgr/Gau-353395.inp" -scrdir="/tmp/55568.mgr/"
 Entering Link 1 = /share/apps/gaussian/g16/l1.exe PID=    353396.
  
 Copyright (c) 1988,1990,1992,1993,1995,1998,2003,2009,2016,
            Gaussian, Inc.  All Rights Reserved.
  
 This is part of the Gaussian(R) 16 program.  It is based on
 the Gaussian(R) 09 system (copyright 2009, Gaussian, Inc.),
 the Gaussian(R) 03 system (copyright 2003, Gaussian, Inc.),
 the Gaussian(R) 98 system (copyright 1998, Gaussian, Inc.),
 the Gaussian(R) 94 system (copyright 1995, Gaussian, Inc.),
 the Gaussian 92(TM) system (copyright 1992, Gaussian, Inc.),
 the Gaussian 90(TM) system (copyright 1990, Gaussian, Inc.),
 the Gaussian 88(TM) system (copyright 1988, Gaussian, Inc.),
 the Gaussian 86(TM) system (copyright 1986, Carnegie Mellon
 University), and the Gaussian 82(TM) system (copyright 1983,
 Carnegie Mellon University). Gaussian is a federally registered
 trademark of Gaussian, Inc.
  
 This software contains proprietary and confidential information,
 including trade secrets, belonging to Gaussian, Inc.
  
 This software is provided under written license and may be
 used, copied, transmitted, or stored only in accord with that
 written license.
  
 The following legend is applicable only to US Government
 contracts under FAR:
  
                    RESTRICTED RIGHTS LEGEND
  
 Use, reproduction and disclosure by the US Government is
 subject to restrictions as set forth in subparagraphs (a)
 and (c) of the Commercial Computer Software - Restricted
 Rights clause in FAR 52.227-19.
  
 Gaussian, Inc.
 340 Quinnipiac St., Bldg. 40, Wallingford CT 06492
  
  
 ---------------------------------------------------------------
 Warning -- This program may not be used in any manner that
 competes with the business of Gaussian, Inc. or will provide
 assistance to any competitor of Gaussian, Inc.  The licensee
 of this program is prohibited from giving any competitor of
 Gaussian, Inc. access to this program.  By using this program,
 the user acknowledges that Gaussian, Inc. is engaged in the
 business of creating and licensing software in the field of
 computational chemistry and represents and warrants to the
 licensee that it is not a competitor of Gaussian, Inc. and that
 it will not use this program in any manner prohibited above.
 ---------------------------------------------------------------
  

 Cite this work as:
 Gaussian 16, Revision A.03,
 M. J. Frisch, G. W. Trucks, H. B. Schlegel, G. E. Scuseria, 
 M. A. Robb, J. R. Cheeseman, G. Scalmani, V. Barone, 
 G. A. Petersson, H. Nakatsuji, X. Li, M. Caricato, A. V. Marenich, 
 J. Bloino, B. G. Janesko, R. Gomperts, B. Mennucci, H. P. Hratchian, 
 J. V. Ortiz, A. F. Izmaylov, J. L. Sonnenberg, D. Williams-Young, 
 F. Ding, F. Lipparini, F. Egidi, J. Goings, B. Peng, A. Petrone, 
 T. Henderson, D. Ranasinghe, V. G. Zakrzewski, J. Gao, N. Rega, 
 G. Zheng, W. Liang, M. Hada, M. Ehara, K. Toyota, R. Fukuda, 
 J. Hasegawa, M. Ishida, T. Nakajima, Y. Honda, O. Kitao, H. Nakai, 
 T. Vreven, K. Throssell, J. A. Montgomery, Jr., J. E. Peralta, 
 F. Ogliaro, M. J. Bearpark, J. J. Heyd, E. N. Brothers, K. N. Kudin, 
 V. N. Staroverov, T. A. Keith, R. Kobayashi, J. Normand, 
 K. Raghavachari, A. P. Rendell, J. C. Burant, S. S. Iyengar, 
 J. Tomasi, M. Cossi, J. M. Millam, M. Klene, C. Adamo, R. Cammi, 
 J. W. Ochterski, R. L. Martin, K. Morokuma, O. Farkas, 
 J. B. Foresman, and D. J. Fox, Gaussian, Inc., Wallingford CT, 2016.
 
 ******************************************
 Gaussian 16:  ES64L-G16RevA.03 25-Dec-2016
                22-Sep-2023 
 ******************************************
 %nprocshared=2
 Will use up to    2 processors via shared memory.
 %mem=2GB
 ----------------
 # 6-31g(d) wb97x
 ----------------
 1/38=1,172=1/1;
 2/12=2,17=6,18=5,40=1/2;
 3/5=1,6=6,7=1,11=2,25=1,30=1,74=-57/1,2,3;
 4//1;
 5/5=2,38=5/2;
 6/7=2,8=2,9=2,10=2,28=1/1;
 99/5=1,9=1/99;
 --------------------
 tmpdir/M2_ref_52.gjf
 --------------------
 Symbolic Z-matrix:
 Charge =  0 Multiplicity = 1
 C                     8.58256   30.50288   35.93176 
 C                     7.329     30.98657   36.59869 
 H                     8.98524   29.58364   36.43296 
 H                     9.46824   31.26495   35.94572 
 H                     8.38576   30.23446   34.87678 
 O                     6.6253    30.29409   37.22999 
 H                     7.01408   32.01936   36.47357 
 
                          Input orientation:                          
 ---------------------------------------------------------------------
 Center     Atomic      Atomic             Coordinates (Angstroms)
 Number     Number       Type             X           Y           Z
 ---------------------------------------------------------------------
      1          6           0        8.582564   30.502876   35.931757
      2          6           0        7.329002   30.986570   36.598694
      3          1           0        8.985237   29.583640   36.432956
      4          1           0        9.468244   31.264949   35.945716
      5          1           0        8.385764   30.234457   34.876776
      6          8           0        6.625299   30.294091   37.229989
      7          1           0        7.014081   32.019358   36.473568
 ---------------------------------------------------------------------
                    Distance matrix (angstroms):
                    1          2          3          4          5
     1  C    0.000000
     2  C    1.500061   0.000000
     3  H    1.121758   2.176878   0.000000
     4  H    1.168495   2.253937   1.815902   0.000000
     5  H    1.106239   2.155788   1.790147   1.837474   0.000000
     6  O    2.357941   1.171862   2.590234   3.267149   2.939457
     7  H    2.247980   1.086960   3.133661   2.621198   2.759915
                    6          7
     6  O    0.000000
     7  H    1.923505   0.000000
 Stoichiometry    C2H4O
 Framework group  C1[X(C2H4O)]
 Deg. of freedom    15
 Full point group                 C1      NOp   1
 Largest Abelian subgroup         C1      NOp   1
 Largest concise Abelian subgroup C1      NOp   1
                         Standard orientation:                         
 ---------------------------------------------------------------------
 Center     Atomic      Atomic             Coordinates (Angstroms)
 Number     Number       Type             X           Y           Z
 ---------------------------------------------------------------------
      1          6           0       -1.151417   -0.120790    0.007866
      2          6           0        0.254779    0.401294   -0.007012
      3          1           0       -1.205722   -1.164378   -0.399953
      4          1           0       -1.907155    0.493625   -0.637683
      5          1           0       -1.543875   -0.158115    1.041476
      6          8           0        1.200352   -0.290906   -0.003511
      7          1           0        0.433767    1.473097    0.019122
 ---------------------------------------------------------------------
 Rotational constants (GHZ):          56.7762532          10.3633387           9.3010606
 Standard basis: 6-31G(d) (6D, 7F)
 There are    53 symmetry adapted cartesian basis functions of A   symmetry.
 There are    53 symmetry adapted basis functions of A   symmetry.
    53 basis functions,   100 primitive gaussians,    53 cartesian basis functions
    12 alpha electrons       12 beta electrons
       nuclear repulsion energy        70.2474099123 Hartrees.
 NAtoms=    7 NActive=    7 NUniq=    7 SFac= 1.00D+00 NAtFMM=   60 NAOKFM=F Big=F
 Integral buffers will be    131072 words long.
 Raffenetti 2 integral format.
 Two-electron integral symmetry is turned on.
 One-electron integrals computed using PRISM.
 NBasis=    53 RedAO= T EigKep=  5.44D-03  NBF=    53
 NBsUse=    53 1.00D-06 EigRej= -1.00D+00 NBFU=    53
 ExpMin= 1.61D-01 ExpMax= 5.48D+03 ExpMxC= 8.25D+02 IAcc=3 IRadAn=         5 AccDes= 0.00D+00
 Harris functional with IExCor= 4538 and IRadAn=       5 diagonalized for initial guess.
 HarFok:  IExCor= 4538 AccDes= 0.00D+00 IRadAn=         5 IDoV= 1 UseB2=F ITyADJ=14
 ICtDFT=  3500011 ScaDFX=  1.000000  1.000000  1.000000  1.000000
 FoFCou: FMM=F IPFlag=           0 FMFlag=      100000 FMFlg1=           0
         NFxFlg=           0 DoJE=T BraDBF=F KetDBF=T FulRan=T
         wScrn=  0.000000 ICntrl=       500 IOpCl=  0 I1Cent=   200000004 NGrid=           0
         NMat0=    1 NMatS0=      1 NMatT0=    0 NMatD0=    1 NMtDS0=    0 NMtDT0=    0
 Petite list used in FoFCou.
 Keep R1 ints in memory in canonical form, NReq=3800804.
 Requested convergence on RMS density matrix=1.00D-08 within 128 cycles.
 Requested convergence on MAX density matrix=1.00D-06.
 Requested convergence on             energy=1.00D-06.
 No special actions if energy rises.
 Integral accuracy reduced to 1.0D-05 until final iterations.
 Initial convergence to 1.0D-05 achieved.  Increase integral accuracy.
 SCF Done:  E(RwB97X) =  -153.777217591     A.U. after   15 cycles
            NFock= 15  Conv=0.43D-08     -V/T= 2.0086

 **********************************************************************

            Population analysis using the SCF density.

 **********************************************************************

 Orbital symmetries:
       Occupied  (A) (A) (A) (A) (A) (A) (A) (A) (A) (A) (A) (A)
       Virtual   (A) (A) (A) (A) (A) (A) (A) (A) (A) (A) (A) (A)
                 (A) (A) (A) (A) (A) (A) (A) (A) (A) (A) (A) (A)
                 (A) (A) (A) (A) (A) (A) (A) (A) (A) (A) (A) (A)
                 (A) (A) (A) (A) (A)
 The electronic state is 1-A.
 Alpha  occ. eigenvalues --  -19.21406 -10.35865 -10.28742  -1.19342  -0.87229
 Alpha  occ. eigenvalues --   -0.70095  -0.59446  -0.55599  -0.54765  -0.48932
 Alpha  occ. eigenvalues --   -0.47334  -0.35476
 Alpha virt. eigenvalues --    0.08376   0.19951   0.21984   0.25346   0.25907
 Alpha virt. eigenvalues --    0.36297   0.38322   0.63005   0.64161   0.70471
 Alpha virt. eigenvalues --    0.72234   0.79486   0.84992   0.86608   0.94219
 Alpha virt. eigenvalues --    0.97526   0.98576   1.00978   1.03664   1.10464
 Alpha virt. eigenvalues --    1.20152   1.33554   1.50988   1.59130   1.64086
 Alpha virt. eigenvalues --    1.80314   1.91056   1.93238   1.95162   2.14090
 Alpha virt. eigenvalues --    2.20826   2.25917   2.38397   2.48603   2.70531
 Alpha virt. eigenvalues --    2.73841   2.98814   3.10872   3.95079   4.19188
 Alpha virt. eigenvalues --    4.45484
          Condensed to atoms (all electrons):
               1          2          3          4          5          6
     1  C    5.390231   0.301669   0.361574   0.344136   0.361383  -0.085480
     2  C    0.301669   4.528391  -0.023031  -0.014155  -0.019439   0.610490
     3  H    0.361574  -0.023031   0.501136  -0.023357  -0.018864   0.003894
     4  H    0.344136  -0.014155  -0.023357   0.544880  -0.020421   0.002323
     5  H    0.361383  -0.019439  -0.018864  -0.020421   0.498369  -0.000243
     6  O   -0.085480   0.610490   0.003894   0.002323  -0.000243   7.887318
     7  H   -0.105625   0.369065   0.004128   0.003529   0.002728  -0.065783
               7
     1  C   -0.105625
     2  C    0.369065
     3  H    0.004128
     4  H    0.003529
     5  H    0.002728
     6  O   -0.065783
     7  H    0.672631
 Mulliken charges:
               1
     1  C   -0.567888
     2  C    0.247010
     3  H    0.194519
     4  H    0.163065
     5  H    0.196486
     6  O   -0.352519
     7  H    0.119327
 Sum of Mulliken charges =  -0.00000
 Mulliken charges with hydrogens summed into heavy atoms:
               1
     1  C   -0.013818
     2  C    0.366337
     6  O   -0.352519
 Electronic spatial extent (au):  <R**2>=            165.3995
 Charge=             -0.0000 electrons
 Dipole moment (field-independent basis, Debye):
    X=             -2.2410    Y=              1.0565    Z=              0.0859  Tot=              2.4790
 Quadrupole moment (field-independent basis, Debye-Ang):
   XX=            -20.3658   YY=            -17.8699   ZZ=            -17.5077
   XY=              1.2258   XZ=             -0.0658   YZ=              0.0013
 Traceless Quadrupole moment (field-independent basis, Debye-Ang):
   XX=             -1.7846   YY=              0.7112   ZZ=              1.0734
   XY=              1.2258   XZ=             -0.0658   YZ=              0.0013
 Octapole moment (field-independent basis, Debye-Ang**2):
  XXX=             -0.0177  YYY=             -0.8047  ZZZ=              0.8678  XYY=              1.2829
  XXY=              0.6608  XXZ=             -0.0605  XZZ=              0.9657  YZZ=             -0.3662
  YYZ=             -0.4852  XYZ=              0.1912
 Hexadecapole moment (field-independent basis, Debye-Ang**3):
 XXXX=           -145.8359 YYYY=            -40.5419 ZZZZ=            -22.2825 XXXY=             -1.3330
 XXXZ=              0.4568 YYYX=              0.7638 YYYZ=              0.6806 ZZZX=             -1.4334
 ZZZY=             -0.2057 XXYY=            -30.2531 XXZZ=            -25.3812 YYZZ=            -10.8668
 XXYZ=             -0.7144 YYXZ=              0.7408 ZZXY=             -0.4998
 N-N= 7.024740991234D+01 E-N=-4.995914427740D+02  KE= 1.524624680913D+02
 1\1\GINC-NODE67\SP\RwB97X\6-31G(d)\C2H4O1\YANZ\22-Sep-2023\0\\# 6-31g(
 d) wb97x\\tmpdir/M2_ref_52.gjf\\0,1\C,0,8.582564,30.502876,35.931757\C
 ,0,7.329002,30.98657,36.598694\H,0,8.98523717,29.58363995,36.43295612\
 H,0,9.46824422,31.26494934,35.94571635\H,0,8.385764,30.234457,34.87677
 6\O,0,6.62529875,30.29409061,37.22998924\H,0,7.014081,32.019358,36.473
 568\\Version=ES64L-G16RevA.03\State=1-A\HF=-153.7772176\RMSD=4.280e-09
 \Dipole=0.6692039,0.4136408,-0.576487\Quadrupole=-0.5508017,0.5070137,
 0.043788,-0.7552905,1.0072287,0.5525612\PG=C01 [X(C2H4O1)]\\@


 We're simply so accustomed to the marvels of everyday thought
 that we never wonder about it.
 -- Marvin Minsky in "Why people think computers are smart"
 Job cpu time:       0 days  0 hours  0 minutes 13.3 seconds.
 Elapsed time:       0 days  0 hours  0 minutes  6.7 seconds.
 File lengths (MBytes):  RWF=      6 Int=      0 D2E=      0 Chk=      1 Scr=      1
 Normal termination of Gaussian 16 at Fri Sep 22 16:29:35 2023.
