 Entering Gaussian System, Link 0=g16
 Initial command:
 /share/apps/gaussian/g16/l1.exe "/tmp/55568.mgr/Gau-353379.inp" -scrdir="/tmp/55568.mgr/"
 Entering Link 1 = /share/apps/gaussian/g16/l1.exe PID=    353380.
  
 Copyright (c) 1988,1990,1992,1993,1995,1998,2003,2009,2016,
            Gaussian, Inc.  All Rights Reserved.
  
 This is part of the Gaussian(R) 16 program.  It is based on
 the Gaussian(R) 09 system (copyright 2009, Gaussian, Inc.),
 the Gaussian(R) 03 system (copyright 2003, Gaussian, Inc.),
 the Gaussian(R) 98 system (copyright 1998, Gaussian, Inc.),
 the Gaussian(R) 94 system (copyright 1995, Gaussian, Inc.),
 the Gaussian 92(TM) system (copyright 1992, Gaussian, Inc.),
 the Gaussian 90(TM) system (copyright 1990, Gaussian, Inc.),
 the Gaussian 88(TM) system (copyright 1988, Gaussian, Inc.),
 the Gaussian 86(TM) system (copyright 1986, Carnegie Mellon
 University), and the Gaussian 82(TM) system (copyright 1983,
 Carnegie Mellon University). Gaussian is a federally registered
 trademark of Gaussian, Inc.
  
 This software contains proprietary and confidential information,
 including trade secrets, belonging to Gaussian, Inc.
  
 This software is provided under written license and may be
 used, copied, transmitted, or stored only in accord with that
 written license.
  
 The following legend is applicable only to US Government
 contracts under FAR:
  
                    RESTRICTED RIGHTS LEGEND
  
 Use, reproduction and disclosure by the US Government is
 subject to restrictions as set forth in subparagraphs (a)
 and (c) of the Commercial Computer Software - Restricted
 Rights clause in FAR 52.227-19.
  
 Gaussian, Inc.
 340 Quinnipiac St., Bldg. 40, Wallingford CT 06492
  
  
 ---------------------------------------------------------------
 Warning -- This program may not be used in any manner that
 competes with the business of Gaussian, Inc. or will provide
 assistance to any competitor of Gaussian, Inc.  The licensee
 of this program is prohibited from giving any competitor of
 Gaussian, Inc. access to this program.  By using this program,
 the user acknowledges that Gaussian, Inc. is engaged in the
 business of creating and licensing software in the field of
 computational chemistry and represents and warrants to the
 licensee that it is not a competitor of Gaussian, Inc. and that
 it will not use this program in any manner prohibited above.
 ---------------------------------------------------------------
  

 Cite this work as:
 Gaussian 16, Revision A.03,
 M. J. Frisch, G. W. Trucks, H. B. Schlegel, G. E. Scuseria, 
 M. A. Robb, J. R. Cheeseman, G. Scalmani, V. Barone, 
 G. A. Petersson, H. Nakatsuji, X. Li, M. Caricato, A. V. Marenich, 
 J. Bloino, B. G. Janesko, R. Gomperts, B. Mennucci, H. P. Hratchian, 
 J. V. Ortiz, A. F. Izmaylov, J. L. Sonnenberg, D. Williams-Young, 
 F. Ding, F. Lipparini, F. Egidi, J. Goings, B. Peng, A. Petrone, 
 T. Henderson, D. Ranasinghe, V. G. Zakrzewski, J. Gao, N. Rega, 
 G. Zheng, W. Liang, M. Hada, M. Ehara, K. Toyota, R. Fukuda, 
 J. Hasegawa, M. Ishida, T. Nakajima, Y. Honda, O. Kitao, H. Nakai, 
 T. Vreven, K. Throssell, J. A. Montgomery, Jr., J. E. Peralta, 
 F. Ogliaro, M. J. Bearpark, J. J. Heyd, E. N. Brothers, K. N. Kudin, 
 V. N. Staroverov, T. A. Keith, R. Kobayashi, J. Normand, 
 K. Raghavachari, A. P. Rendell, J. C. Burant, S. S. Iyengar, 
 J. Tomasi, M. Cossi, J. M. Millam, M. Klene, C. Adamo, R. Cammi, 
 J. W. Ochterski, R. L. Martin, K. Morokuma, O. Farkas, 
 J. B. Foresman, and D. J. Fox, Gaussian, Inc., Wallingford CT, 2016.
 
 ******************************************
 Gaussian 16:  ES64L-G16RevA.03 25-Dec-2016
                22-Sep-2023 
 ******************************************
 %nprocshared=2
 Will use up to    2 processors via shared memory.
 %mem=2GB
 ----------------
 # 6-31g(d) wb97x
 ----------------
 1/38=1,172=1/1;
 2/12=2,17=6,18=5,40=1/2;
 3/5=1,6=6,7=1,11=2,25=1,30=1,74=-57/1,2,3;
 4//1;
 5/5=2,38=5/2;
 6/7=2,8=2,9=2,10=2,28=1/1;
 99/5=1,9=1/99;
 --------------------
 tmpdir/M2_ref_66.gjf
 --------------------
 Symbolic Z-matrix:
 Charge =  0 Multiplicity = 1
 C                     8.58256   30.50288   35.93176 
 O                     9.66123   31.431    35.94876 
 C                     9.79769   32.27465   34.79924 
 H                     8.98524   29.58364   36.43296 
 H                     7.67513   30.85302   36.41454 
 H                     8.38576   30.23446   34.87678 
 H                     8.99931   33.03979   34.72557 
 H                     10.81026   32.71239   34.85388 
 H                     9.74144   31.63216   33.9002 
 
                          Input orientation:                          
 ---------------------------------------------------------------------
 Center     Atomic      Atomic             Coordinates (Angstroms)
 Number     Number       Type             X           Y           Z
 ---------------------------------------------------------------------
      1          6           0        8.582564   30.502876   35.931757
      2          8           0        9.661228   31.431000   35.948758
      3          6           0        9.797688   32.274648   34.799237
      4          1           0        8.985237   29.583640   36.432956
      5          1           0        7.675128   30.853015   36.414543
      6          1           0        8.385764   30.234457   34.876776
      7          1           0        8.999313   33.039789   34.725574
      8          1           0       10.810260   32.712393   34.853880
      9          1           0        9.741440   31.632164   33.900198
 ---------------------------------------------------------------------
                    Distance matrix (angstroms):
                    1          2          3          4          5
     1  C    0.000000
     2  O    1.423102   0.000000
     3  C    2.428642   1.432397   0.000000
     4  H    1.121758   2.025870   3.251252   0.000000
     5  H    1.085873   2.120287   3.022501   1.824291   0.000000
     6  H    1.106239   2.051260   2.482322   1.790147   1.803426
     7  H    2.839803   2.126620   1.108273   3.854908   3.063994
     8  H    3.317592   2.039853   1.104495   3.951365   3.965099
     9  H    2.597213   2.059975   1.106445   3.344123   3.346438
                    6          7          8          9
     6  H    0.000000
     7  H    2.875620   0.000000
     8  H    3.466825   1.844772   0.000000
     9  H    2.178336   1.792598   1.794096   0.000000
 Stoichiometry    C2H6O
 Framework group  C1[X(C2H6O)]
 Deg. of freedom    21
 Full point group                 C1      NOp   1
 Largest Abelian subgroup         C1      NOp   1
 Largest concise Abelian subgroup C1      NOp   1
                         Standard orientation:                         
 ---------------------------------------------------------------------
 Center     Atomic      Atomic             Coordinates (Angstroms)
 Number     Number       Type             X           Y           Z
 ---------------------------------------------------------------------
      1          6           0       -1.211741    0.190521    0.007996
      2          8           0       -0.004389   -0.562562    0.027642
      3          6           0        1.216892    0.185535    0.003433
      4          1           0       -1.917026   -0.411840   -0.622936
      5          1           0       -1.633190    0.397717    0.987062
      6          1           0       -1.013166    1.131106   -0.539390
      7          1           0        1.412877    0.726664    0.950554
      8          1           0        2.015423   -0.532081   -0.255963
      9          1           0        1.139282    0.932594   -0.809033
 ---------------------------------------------------------------------
 Rotational constants (GHZ):          40.6550532           9.4388530           8.5153961
 Standard basis: 6-31G(d) (6D, 7F)
 There are    57 symmetry adapted cartesian basis functions of A   symmetry.
 There are    57 symmetry adapted basis functions of A   symmetry.
    57 basis functions,   108 primitive gaussians,    57 cartesian basis functions
    13 alpha electrons       13 beta electrons
       nuclear repulsion energy        82.7636743669 Hartrees.
 NAtoms=    9 NActive=    9 NUniq=    9 SFac= 1.00D+00 NAtFMM=   60 NAOKFM=F Big=F
 Integral buffers will be    131072 words long.
 Raffenetti 2 integral format.
 Two-electron integral symmetry is turned on.
 One-electron integrals computed using PRISM.
 NBasis=    57 RedAO= T EigKep=  8.09D-03  NBF=    57
 NBsUse=    57 1.00D-06 EigRej= -1.00D+00 NBFU=    57
 ExpMin= 1.61D-01 ExpMax= 5.48D+03 ExpMxC= 8.25D+02 IAcc=3 IRadAn=         5 AccDes= 0.00D+00
 Harris functional with IExCor= 4538 and IRadAn=       5 diagonalized for initial guess.
 HarFok:  IExCor= 4538 AccDes= 0.00D+00 IRadAn=         5 IDoV= 1 UseB2=F ITyADJ=14
 ICtDFT=  3500011 ScaDFX=  1.000000  1.000000  1.000000  1.000000
 FoFCou: FMM=F IPFlag=           0 FMFlag=      100000 FMFlg1=           0
         NFxFlg=           0 DoJE=T BraDBF=F KetDBF=T FulRan=T
         wScrn=  0.000000 ICntrl=       500 IOpCl=  0 I1Cent=   200000004 NGrid=           0
         NMat0=    1 NMatS0=      1 NMatT0=    0 NMatD0=    1 NMtDS0=    0 NMtDT0=    0
 Petite list used in FoFCou.
 Keep R1 ints in memory in canonical form, NReq=4494208.
 Requested convergence on RMS density matrix=1.00D-08 within 128 cycles.
 Requested convergence on MAX density matrix=1.00D-06.
 Requested convergence on             energy=1.00D-06.
 No special actions if energy rises.
 Integral accuracy reduced to 1.0D-05 until final iterations.
 Initial convergence to 1.0D-05 achieved.  Increase integral accuracy.
 SCF Done:  E(RwB97X) =  -154.971834207     A.U. after   13 cycles
            NFock= 13  Conv=0.56D-08     -V/T= 2.0100

 **********************************************************************

            Population analysis using the SCF density.

 **********************************************************************

 Orbital symmetries:
       Occupied  (A) (A) (A) (A) (A) (A) (A) (A) (A) (A) (A) (A)
                 (A)
       Virtual   (A) (A) (A) (A) (A) (A) (A) (A) (A) (A) (A) (A)
                 (A) (A) (A) (A) (A) (A) (A) (A) (A) (A) (A) (A)
                 (A) (A) (A) (A) (A) (A) (A) (A) (A) (A) (A) (A)
                 (A) (A) (A) (A) (A) (A) (A) (A)
 The electronic state is 1-A.
 Alpha  occ. eigenvalues --  -19.20593 -10.31086 -10.30842  -1.13903  -0.84237
 Alpha  occ. eigenvalues --   -0.75421  -0.57721  -0.57221  -0.57029  -0.50616
 Alpha  occ. eigenvalues --   -0.47590  -0.40595  -0.34846
 Alpha virt. eigenvalues --    0.18259   0.22725   0.24424   0.24539   0.26828
 Alpha virt. eigenvalues --    0.28489   0.28723   0.34490   0.62435   0.64032
 Alpha virt. eigenvalues --    0.64394   0.68158   0.69972   0.81888   0.94157
 Alpha virt. eigenvalues --    0.96099   0.97216   0.97428   0.99897   1.04918
 Alpha virt. eigenvalues --    1.05903   1.15889   1.18750   1.21752   1.45760
 Alpha virt. eigenvalues --    1.54115   1.59576   1.65221   1.75367   1.99799
 Alpha virt. eigenvalues --    2.12611   2.16527   2.21116   2.21973   2.29523
 Alpha virt. eigenvalues --    2.32788   2.44832   2.58346   2.58767   2.85370
 Alpha virt. eigenvalues --    2.99534   3.98895   4.33868   4.39060
          Condensed to atoms (all electrons):
               1          2          3          4          5          6
     1  C    4.884750   0.248996  -0.044955   0.390019   0.373859   0.366920
     2  O    0.248996   8.200612   0.251623  -0.040215  -0.035429  -0.037499
     3  C   -0.044955   0.251623   4.885558   0.004535   0.000179  -0.011522
     4  H    0.390019  -0.040215   0.004535   0.545100  -0.036187  -0.027506
     5  H    0.373859  -0.035429   0.000179  -0.036187   0.579246  -0.039741
     6  H    0.366920  -0.037499  -0.011522  -0.027506  -0.039741   0.605173
     7  H   -0.001129  -0.036615   0.368406  -0.000375   0.003363  -0.001084
     8  H    0.004838  -0.033645   0.391731  -0.000141  -0.000226   0.000028
     9  H   -0.011291  -0.040023   0.368757   0.000448  -0.001078   0.015178
               7          8          9
     1  C   -0.001129   0.004838  -0.011291
     2  O   -0.036615  -0.033645  -0.040023
     3  C    0.368406   0.391731   0.368757
     4  H   -0.000375  -0.000141   0.000448
     5  H    0.003363  -0.000226  -0.001078
     6  H   -0.001084   0.000028   0.015178
     7  H    0.599102  -0.030194  -0.045833
     8  H   -0.030194   0.520888  -0.027867
     9  H   -0.045833  -0.027867   0.606927
 Mulliken charges:
               1
     1  C   -0.212007
     2  O   -0.477804
     3  C   -0.214314
     4  H    0.164323
     5  H    0.156015
     6  H    0.130055
     7  H    0.144359
     8  H    0.174589
     9  H    0.134783
 Sum of Mulliken charges =  -0.00000
 Mulliken charges with hydrogens summed into heavy atoms:
               1
     1  C    0.238386
     2  O   -0.477804
     3  C    0.239418
 Electronic spatial extent (au):  <R**2>=            192.6228
 Charge=             -0.0000 electrons
 Dipole moment (field-independent basis, Debye):
    X=              0.0486    Y=              1.4023    Z=             -0.1026  Tot=              1.4069
 Quadrupole moment (field-independent basis, Debye-Ang):
   XX=            -16.8584   YY=            -20.9245   ZZ=            -19.8185
   XY=             -0.1287   XZ=             -0.0780   YZ=              0.2856
 Traceless Quadrupole moment (field-independent basis, Debye-Ang):
   XX=              2.3421   YY=             -1.7240   ZZ=             -0.6181
   XY=             -0.1287   XZ=             -0.0780   YZ=              0.2856
 Octapole moment (field-independent basis, Debye-Ang**2):
  XXX=              0.4819  YYY=             -1.4008  ZZZ=              0.6593  XYY=              0.3419
  XXY=             -2.0172  XXZ=             -0.3944  XZZ=             -0.5083  YZZ=             -0.0879
  YYZ=             -0.4117  XYZ=             -0.0648
 Hexadecapole moment (field-independent basis, Debye-Ang**3):
 XXXX=           -168.1567 YYYY=            -47.3355 ZZZZ=            -33.0135 XXXY=             -1.4487
 XXXZ=             -0.5460 YYYX=             -0.3207 YYYZ=             -0.2107 ZZZX=             -0.3851
 ZZZY=              0.5789 XXYY=            -35.5743 XXZZ=            -33.3847 YYZZ=            -12.9265
 XXYZ=              1.8165 YYXZ=              0.1955 ZZXY=              0.4538
 N-N= 8.276367436686D+01 E-N=-5.270369059567D+02  KE= 1.534415836305D+02
 1\1\GINC-NODE67\SP\RwB97X\6-31G(d)\C2H6O1\YANZ\22-Sep-2023\0\\# 6-31g(
 d) wb97x\\tmpdir/M2_ref_66.gjf\\0,1\C,0,8.582564,30.502876,35.931757\O
 ,0,9.661228,31.431,35.948758\C,0,9.797688,32.274648,34.799237\H,0,8.98
 523717,29.58363995,36.43295612\H,0,7.67512802,30.85301531,36.41454336\
 H,0,8.385764,30.234457,34.876776\H,0,8.99931268,33.03978899,34.7255743
 6\H,0,10.81026046,32.71239272,34.85388026\H,0,9.74144,31.632164,33.900
 198\\Version=ES64L-G16RevA.03\State=1-A\HF=-154.9718342\RMSD=5.646e-09
 \Dipole=-0.3253703,-0.0373463,-0.4462476\Quadrupole=-0.0066512,0.64986
 21,-0.6432108,0.74124,-0.9082463,-0.8415698\PG=C01 [X(C2H6O1)]\\@


 We're simply so accustomed to the marvels of everyday thought
 that we never wonder about it.
 -- Marvin Minsky in "Why people think computers are smart"
 Job cpu time:       0 days  0 hours  0 minutes 15.9 seconds.
 Elapsed time:       0 days  0 hours  0 minutes  8.1 seconds.
 File lengths (MBytes):  RWF=      6 Int=      0 D2E=      0 Chk=      1 Scr=      1
 Normal termination of Gaussian 16 at Fri Sep 22 16:29:35 2023.
