 Entering Gaussian System, Link 0=g16
 Initial command:
 /share/apps/gaussian/g16/l1.exe "/tmp/55568.mgr/Gau-353696.inp" -scrdir="/tmp/55568.mgr/"
 Entering Link 1 = /share/apps/gaussian/g16/l1.exe PID=    353697.
  
 Copyright (c) 1988,1990,1992,1993,1995,1998,2003,2009,2016,
            Gaussian, Inc.  All Rights Reserved.
  
 This is part of the Gaussian(R) 16 program.  It is based on
 the Gaussian(R) 09 system (copyright 2009, Gaussian, Inc.),
 the Gaussian(R) 03 system (copyright 2003, Gaussian, Inc.),
 the Gaussian(R) 98 system (copyright 1998, Gaussian, Inc.),
 the Gaussian(R) 94 system (copyright 1995, Gaussian, Inc.),
 the Gaussian 92(TM) system (copyright 1992, Gaussian, Inc.),
 the Gaussian 90(TM) system (copyright 1990, Gaussian, Inc.),
 the Gaussian 88(TM) system (copyright 1988, Gaussian, Inc.),
 the Gaussian 86(TM) system (copyright 1986, Carnegie Mellon
 University), and the Gaussian 82(TM) system (copyright 1983,
 Carnegie Mellon University). Gaussian is a federally registered
 trademark of Gaussian, Inc.
  
 This software contains proprietary and confidential information,
 including trade secrets, belonging to Gaussian, Inc.
  
 This software is provided under written license and may be
 used, copied, transmitted, or stored only in accord with that
 written license.
  
 The following legend is applicable only to US Government
 contracts under FAR:
  
                    RESTRICTED RIGHTS LEGEND
  
 Use, reproduction and disclosure by the US Government is
 subject to restrictions as set forth in subparagraphs (a)
 and (c) of the Commercial Computer Software - Restricted
 Rights clause in FAR 52.227-19.
  
 Gaussian, Inc.
 340 Quinnipiac St., Bldg. 40, Wallingford CT 06492
  
  
 ---------------------------------------------------------------
 Warning -- This program may not be used in any manner that
 competes with the business of Gaussian, Inc. or will provide
 assistance to any competitor of Gaussian, Inc.  The licensee
 of this program is prohibited from giving any competitor of
 Gaussian, Inc. access to this program.  By using this program,
 the user acknowledges that Gaussian, Inc. is engaged in the
 business of creating and licensing software in the field of
 computational chemistry and represents and warrants to the
 licensee that it is not a competitor of Gaussian, Inc. and that
 it will not use this program in any manner prohibited above.
 ---------------------------------------------------------------
  

 Cite this work as:
 Gaussian 16, Revision A.03,
 M. J. Frisch, G. W. Trucks, H. B. Schlegel, G. E. Scuseria, 
 M. A. Robb, J. R. Cheeseman, G. Scalmani, V. Barone, 
 G. A. Petersson, H. Nakatsuji, X. Li, M. Caricato, A. V. Marenich, 
 J. Bloino, B. G. Janesko, R. Gomperts, B. Mennucci, H. P. Hratchian, 
 J. V. Ortiz, A. F. Izmaylov, J. L. Sonnenberg, D. Williams-Young, 
 F. Ding, F. Lipparini, F. Egidi, J. Goings, B. Peng, A. Petrone, 
 T. Henderson, D. Ranasinghe, V. G. Zakrzewski, J. Gao, N. Rega, 
 G. Zheng, W. Liang, M. Hada, M. Ehara, K. Toyota, R. Fukuda, 
 J. Hasegawa, M. Ishida, T. Nakajima, Y. Honda, O. Kitao, H. Nakai, 
 T. Vreven, K. Throssell, J. A. Montgomery, Jr., J. E. Peralta, 
 F. Ogliaro, M. J. Bearpark, J. J. Heyd, E. N. Brothers, K. N. Kudin, 
 V. N. Staroverov, T. A. Keith, R. Kobayashi, J. Normand, 
 K. Raghavachari, A. P. Rendell, J. C. Burant, S. S. Iyengar, 
 J. Tomasi, M. Cossi, J. M. Millam, M. Klene, C. Adamo, R. Cammi, 
 J. W. Ochterski, R. L. Martin, K. Morokuma, O. Farkas, 
 J. B. Foresman, and D. J. Fox, Gaussian, Inc., Wallingford CT, 2016.
 
 ******************************************
 Gaussian 16:  ES64L-G16RevA.03 25-Dec-2016
                22-Sep-2023 
 ******************************************
 %nprocshared=2
 Will use up to    2 processors via shared memory.
 %mem=2GB
 ----------------
 # 6-31g(d) wb97x
 ----------------
 1/38=1,172=1/1;
 2/12=2,17=6,18=5,40=1/2;
 3/5=1,6=6,7=1,11=2,25=1,30=1,74=-57/1,2,3;
 4//1;
 5/5=2,38=5/2;
 6/7=2,8=2,9=2,10=2,28=1/1;
 99/5=1,9=1/99;
 --------------------
 tmpdir/M2_ref_71.gjf
 --------------------
 Symbolic Z-matrix:
 Charge =  0 Multiplicity = 1
 O                     9.66123   31.431    35.94876 
 C                     9.79769   32.27465   34.79924 
 C                     11.19649   32.87936   34.87472 
 H                     8.92039   30.79356   35.93708 
 H                     8.99931   33.03979   34.72557 
 H                     9.74144   31.63216   33.9002 
 H                     12.00723   32.12931   34.84221 
 H                     11.27855   33.46883   35.79478 
 H                     11.30452   33.57944   34.03695 
 
                          Input orientation:                          
 ---------------------------------------------------------------------
 Center     Atomic      Atomic             Coordinates (Angstroms)
 Number     Number       Type             X           Y           Z
 ---------------------------------------------------------------------
      1          8           0        9.661228   31.431000   35.948758
      2          6           0        9.797688   32.274648   34.799237
      3          6           0       11.196489   32.879363   34.874723
      4          1           0        8.920392   30.793556   35.937082
      5          1           0        8.999313   33.039789   34.725574
      6          1           0        9.741440   31.632164   33.900198
      7          1           0       12.007234   32.129311   34.842209
      8          1           0       11.278550   33.468826   35.794783
      9          1           0       11.304517   33.579445   34.036954
 ---------------------------------------------------------------------
                    Distance matrix (angstroms):
                    1          2          3          4          5
     1  O    0.000000
     2  C    1.432397   0.000000
     3  C    2.368192   1.525786   0.000000
     4  H    0.977399   2.063485   3.264937   0.000000
     5  H    2.126620   1.108273   2.208068   2.553339   0.000000
     6  H    2.059975   1.106445   2.149970   2.350804   1.792598
     7  H    2.686230   2.214738   1.104963   3.537171   3.144863
     8  H    2.606180   2.147120   1.095770   3.569065   2.553860
     9  H    3.312282   2.134035   1.097106   4.129856   2.465643
                    6          7          8          9
     6  H    0.000000
     7  H    2.503670   0.000000
     8  H    3.053766   1.797965   0.000000
     9  H    2.500763   1.801426   1.761498   0.000000
 Stoichiometry    C2H6O
 Framework group  C1[X(C2H6O)]
 Deg. of freedom    21
 Full point group                 C1      NOp   1
 Largest Abelian subgroup         C1      NOp   1
 Largest concise Abelian subgroup C1      NOp   1
                         Standard orientation:                         
 ---------------------------------------------------------------------
 Center     Atomic      Atomic             Coordinates (Angstroms)
 Number     Number       Type             X           Y           Z
 ---------------------------------------------------------------------
      1          8           0        1.146138   -0.385178   -0.036920
      2          6           0        0.077506    0.568107   -0.004739
      3          6           0       -1.217060   -0.239270    0.011457
      4          1           0        2.037991   -0.048812    0.179331
      5          1           0        0.121731    1.297494   -0.837991
      6          1           0        0.153280    1.128407    0.946336
      7          1           0       -1.321204   -0.894373    0.895163
      8          1           0       -1.269466   -0.843244   -0.901330
      9          1           0       -2.054112    0.468931   -0.026458
 ---------------------------------------------------------------------
 Rotational constants (GHZ):          33.9909817           9.3678022           8.1197753
 Standard basis: 6-31G(d) (6D, 7F)
 There are    57 symmetry adapted cartesian basis functions of A   symmetry.
 There are    57 symmetry adapted basis functions of A   symmetry.
    57 basis functions,   108 primitive gaussians,    57 cartesian basis functions
    13 alpha electrons       13 beta electrons
       nuclear repulsion energy        81.2537030293 Hartrees.
 NAtoms=    9 NActive=    9 NUniq=    9 SFac= 1.00D+00 NAtFMM=   60 NAOKFM=F Big=F
 Integral buffers will be    131072 words long.
 Raffenetti 2 integral format.
 Two-electron integral symmetry is turned on.
 One-electron integrals computed using PRISM.
 NBasis=    57 RedAO= T EigKep=  6.08D-03  NBF=    57
 NBsUse=    57 1.00D-06 EigRej= -1.00D+00 NBFU=    57
 ExpMin= 1.61D-01 ExpMax= 5.48D+03 ExpMxC= 8.25D+02 IAcc=3 IRadAn=         5 AccDes= 0.00D+00
 Harris functional with IExCor= 4538 and IRadAn=       5 diagonalized for initial guess.
 HarFok:  IExCor= 4538 AccDes= 0.00D+00 IRadAn=         5 IDoV= 1 UseB2=F ITyADJ=14
 ICtDFT=  3500011 ScaDFX=  1.000000  1.000000  1.000000  1.000000
 FoFCou: FMM=F IPFlag=           0 FMFlag=      100000 FMFlg1=           0
         NFxFlg=           0 DoJE=T BraDBF=F KetDBF=T FulRan=T
         wScrn=  0.000000 ICntrl=       500 IOpCl=  0 I1Cent=   200000004 NGrid=           0
         NMat0=    1 NMatS0=      1 NMatT0=    0 NMatD0=    1 NMtDS0=    0 NMtDT0=    0
 Petite list used in FoFCou.
 Keep R1 ints in memory in canonical form, NReq=4494208.
 Requested convergence on RMS density matrix=1.00D-08 within 128 cycles.
 Requested convergence on MAX density matrix=1.00D-06.
 Requested convergence on             energy=1.00D-06.
 No special actions if energy rises.
 Integral accuracy reduced to 1.0D-05 until final iterations.
 Initial convergence to 1.0D-05 achieved.  Increase integral accuracy.
 SCF Done:  E(RwB97X) =  -154.985558468     A.U. after   13 cycles
            NFock= 13  Conv=0.36D-08     -V/T= 2.0099

 **********************************************************************

            Population analysis using the SCF density.

 **********************************************************************

 Orbital symmetries:
       Occupied  (A) (A) (A) (A) (A) (A) (A) (A) (A) (A) (A) (A)
                 (A)
       Virtual   (A) (A) (A) (A) (A) (A) (A) (A) (A) (A) (A) (A)
                 (A) (A) (A) (A) (A) (A) (A) (A) (A) (A) (A) (A)
                 (A) (A) (A) (A) (A) (A) (A) (A) (A) (A) (A) (A)
                 (A) (A) (A) (A) (A) (A) (A) (A)
 The electronic state is 1-A.
 Alpha  occ. eigenvalues --  -19.19951 -10.31445 -10.25609  -1.12313  -0.87072
 Alpha  occ. eigenvalues --   -0.72858  -0.61976  -0.56993  -0.49794  -0.47952
 Alpha  occ. eigenvalues --   -0.46582  -0.41511  -0.36299
 Alpha virt. eigenvalues --    0.17813   0.21537   0.24908   0.26113   0.27521
 Alpha virt. eigenvalues --    0.30148   0.31344   0.33642   0.63232   0.66367
 Alpha virt. eigenvalues --    0.66988   0.69454   0.77416   0.81132   0.92160
 Alpha virt. eigenvalues --    0.96772   0.99462   1.01056   1.02805   1.05839
 Alpha virt. eigenvalues --    1.10663   1.13039   1.14675   1.27037   1.48531
 Alpha virt. eigenvalues --    1.55318   1.60891   1.74246   1.88679   1.91878
 Alpha virt. eigenvalues --    2.00557   2.06390   2.14009   2.25974   2.33984
 Alpha virt. eigenvalues --    2.38918   2.46477   2.52376   2.63218   2.73499
 Alpha virt. eigenvalues --    2.94410   3.84659   4.29911   4.52641
          Condensed to atoms (all electrons):
               1          2          3          4          5          6
     1  O    8.290116   0.242768  -0.060078   0.242205  -0.036701  -0.039894
     2  C    0.242768   4.771304   0.371468  -0.017777   0.377385   0.381920
     3  C   -0.060078   0.371468   5.110384   0.005681  -0.041027  -0.040525
     4  H    0.242205  -0.017777   0.005681   0.375222  -0.000906  -0.004857
     5  H   -0.036701   0.377385  -0.041027  -0.000906   0.615881  -0.050210
     6  H   -0.039894   0.381920  -0.040525  -0.004857  -0.050210   0.626557
     7  H    0.002292  -0.025307   0.381704  -0.000029   0.004076  -0.006313
     8  H    0.001655  -0.032975   0.380883  -0.000133  -0.005100   0.005370
     9  H    0.003270  -0.031655   0.365487  -0.000227   0.000812  -0.000544
               7          8          9
     1  O    0.002292   0.001655   0.003270
     2  C   -0.025307  -0.032975  -0.031655
     3  C    0.381704   0.380883   0.365487
     4  H   -0.000029  -0.000133  -0.000227
     5  H    0.004076  -0.005100   0.000812
     6  H   -0.006313   0.005370  -0.000544
     7  H    0.522115  -0.025950  -0.023523
     8  H   -0.025950   0.531422  -0.026659
     9  H   -0.023523  -0.026659   0.563826
 Mulliken charges:
               1
     1  O   -0.645632
     2  C   -0.037130
     3  C   -0.473979
     4  H    0.400821
     5  H    0.135789
     6  H    0.128497
     7  H    0.170934
     8  H    0.171486
     9  H    0.149214
 Sum of Mulliken charges =  -0.00000
 Mulliken charges with hydrogens summed into heavy atoms:
               1
     1  O   -0.244812
     2  C    0.227156
     3  C    0.017656
 Electronic spatial extent (au):  <R**2>=            194.1258
 Charge=             -0.0000 electrons
 Dipole moment (field-independent basis, Debye):
    X=              0.3306    Y=              1.4337    Z=              0.4043  Tot=              1.5258
 Quadrupole moment (field-independent basis, Debye-Ang):
   XX=            -16.2631   YY=            -20.3742   ZZ=            -19.7856
   XY=              1.4860   XZ=              0.9167   YZ=             -0.2055
 Traceless Quadrupole moment (field-independent basis, Debye-Ang):
   XX=              2.5445   YY=             -1.5666   ZZ=             -0.9779
   XY=              1.4860   XZ=              0.9167   YZ=             -0.2055
 Octapole moment (field-independent basis, Debye-Ang**2):
  XXX=             17.6632  YYY=             -0.7047  ZZZ=              0.1953  XYY=              0.7521
  XXY=              1.2766  XXZ=              1.8717  XZZ=              1.4174  YZZ=             -0.5103
  YYZ=             -0.1056  XYZ=              0.0336
 Hexadecapole moment (field-independent basis, Debye-Ang**3):
 XXXX=           -126.8803 YYYY=            -57.7075 ZZZZ=            -32.3837 XXXY=             -2.3953
 XXXZ=              3.9055 YYYX=             -1.0153 YYYZ=             -0.5912 ZZZX=              0.4788
 ZZZY=             -0.0593 XXYY=            -35.5039 XXZZ=            -31.7043 YYZZ=            -13.7519
 XXYZ=             -0.4395 YYXZ=             -0.0379 ZZXY=              0.8575
 N-N= 8.125370302933D+01 E-N=-5.242900661634D+02  KE= 1.534729637042D+02
 1\1\GINC-NODE67\SP\RwB97X\6-31G(d)\C2H6O1\YANZ\22-Sep-2023\0\\# 6-31g(
 d) wb97x\\tmpdir/M2_ref_71.gjf\\0,1\O,0,9.661228,31.431,35.948758\C,0,
 9.797688,32.274648,34.799237\C,0,11.196489,32.879363,34.874723\H,0,8.9
 2039186,30.79355608,35.93708156\H,0,8.99931268,33.03978899,34.72557436
 \H,0,9.74144,31.632164,33.900198\H,0,12.00723408,32.12931069,34.842208
 94\H,0,11.27855,33.468826,35.794783\H,0,11.304517,33.579445,34.036954\
 \Version=ES64L-G16RevA.03\State=1-A\HF=-154.9855585\RMSD=3.644e-09\Dip
 ole=-0.3870422,-0.0754559,-0.4526239\Quadrupole=0.9949247,0.6257877,-1
 .6207124,1.5327285,-0.2946418,-0.0135971\PG=C01 [X(C2H6O1)]\\@


 Everywhere is walking distance if you have the time.
                                    -- Steven Wright
 Job cpu time:       0 days  0 hours  0 minutes 15.9 seconds.
 Elapsed time:       0 days  0 hours  0 minutes  8.1 seconds.
 File lengths (MBytes):  RWF=      6 Int=      0 D2E=      0 Chk=      1 Scr=      1
 Normal termination of Gaussian 16 at Fri Sep 22 16:29:48 2023.
