 Entering Gaussian System, Link 0=g16
 Initial command:
 /share/apps/gaussian/g16/l1.exe "/tmp/55568.mgr/Gau-353310.inp" -scrdir="/tmp/55568.mgr/"
 Entering Link 1 = /share/apps/gaussian/g16/l1.exe PID=    353311.
  
 Copyright (c) 1988,1990,1992,1993,1995,1998,2003,2009,2016,
            Gaussian, Inc.  All Rights Reserved.
  
 This is part of the Gaussian(R) 16 program.  It is based on
 the Gaussian(R) 09 system (copyright 2009, Gaussian, Inc.),
 the Gaussian(R) 03 system (copyright 2003, Gaussian, Inc.),
 the Gaussian(R) 98 system (copyright 1998, Gaussian, Inc.),
 the Gaussian(R) 94 system (copyright 1995, Gaussian, Inc.),
 the Gaussian 92(TM) system (copyright 1992, Gaussian, Inc.),
 the Gaussian 90(TM) system (copyright 1990, Gaussian, Inc.),
 the Gaussian 88(TM) system (copyright 1988, Gaussian, Inc.),
 the Gaussian 86(TM) system (copyright 1986, Carnegie Mellon
 University), and the Gaussian 82(TM) system (copyright 1983,
 Carnegie Mellon University). Gaussian is a federally registered
 trademark of Gaussian, Inc.
  
 This software contains proprietary and confidential information,
 including trade secrets, belonging to Gaussian, Inc.
  
 This software is provided under written license and may be
 used, copied, transmitted, or stored only in accord with that
 written license.
  
 The following legend is applicable only to US Government
 contracts under FAR:
  
                    RESTRICTED RIGHTS LEGEND
  
 Use, reproduction and disclosure by the US Government is
 subject to restrictions as set forth in subparagraphs (a)
 and (c) of the Commercial Computer Software - Restricted
 Rights clause in FAR 52.227-19.
  
 Gaussian, Inc.
 340 Quinnipiac St., Bldg. 40, Wallingford CT 06492
  
  
 ---------------------------------------------------------------
 Warning -- This program may not be used in any manner that
 competes with the business of Gaussian, Inc. or will provide
 assistance to any competitor of Gaussian, Inc.  The licensee
 of this program is prohibited from giving any competitor of
 Gaussian, Inc. access to this program.  By using this program,
 the user acknowledges that Gaussian, Inc. is engaged in the
 business of creating and licensing software in the field of
 computational chemistry and represents and warrants to the
 licensee that it is not a competitor of Gaussian, Inc. and that
 it will not use this program in any manner prohibited above.
 ---------------------------------------------------------------
  

 Cite this work as:
 Gaussian 16, Revision A.03,
 M. J. Frisch, G. W. Trucks, H. B. Schlegel, G. E. Scuseria, 
 M. A. Robb, J. R. Cheeseman, G. Scalmani, V. Barone, 
 G. A. Petersson, H. Nakatsuji, X. Li, M. Caricato, A. V. Marenich, 
 J. Bloino, B. G. Janesko, R. Gomperts, B. Mennucci, H. P. Hratchian, 
 J. V. Ortiz, A. F. Izmaylov, J. L. Sonnenberg, D. Williams-Young, 
 F. Ding, F. Lipparini, F. Egidi, J. Goings, B. Peng, A. Petrone, 
 T. Henderson, D. Ranasinghe, V. G. Zakrzewski, J. Gao, N. Rega, 
 G. Zheng, W. Liang, M. Hada, M. Ehara, K. Toyota, R. Fukuda, 
 J. Hasegawa, M. Ishida, T. Nakajima, Y. Honda, O. Kitao, H. Nakai, 
 T. Vreven, K. Throssell, J. A. Montgomery, Jr., J. E. Peralta, 
 F. Ogliaro, M. J. Bearpark, J. J. Heyd, E. N. Brothers, K. N. Kudin, 
 V. N. Staroverov, T. A. Keith, R. Kobayashi, J. Normand, 
 K. Raghavachari, A. P. Rendell, J. C. Burant, S. S. Iyengar, 
 J. Tomasi, M. Cossi, J. M. Millam, M. Klene, C. Adamo, R. Cammi, 
 J. W. Ochterski, R. L. Martin, K. Morokuma, O. Farkas, 
 J. B. Foresman, and D. J. Fox, Gaussian, Inc., Wallingford CT, 2016.
 
 ******************************************
 Gaussian 16:  ES64L-G16RevA.03 25-Dec-2016
                22-Sep-2023 
 ******************************************
 %nprocshared=2
 Will use up to    2 processors via shared memory.
 %mem=2GB
 ----------------
 # 6-31g(d) wb97x
 ----------------
 1/38=1,172=1/1;
 2/12=2,17=6,18=5,40=1/2;
 3/5=1,6=6,7=1,11=2,25=1,30=1,74=-57/1,2,3;
 4//1;
 5/5=2,38=5/2;
 6/7=2,8=2,9=2,10=2,28=1/1;
 99/5=1,9=1/99;
 --------------------
 tmpdir/M2_ref_40.gjf
 --------------------
 Symbolic Z-matrix:
 Charge =  0 Multiplicity = 1
 C                     9.13883   29.23301   36.62413 
 H                     9.46581   29.53373   37.63046 
 H                     8.31965   28.4932   36.7181 
 H                     10.06802   28.93908   36.00239 
 H                     8.73616   30.15225   36.12293 
 
                          Input orientation:                          
 ---------------------------------------------------------------------
 Center     Atomic      Atomic             Coordinates (Angstroms)
 Number     Number       Type             X           Y           Z
 ---------------------------------------------------------------------
      1          6           0        9.138830   29.233013   36.624130
      2          1           0        9.465810   29.533731   37.630456
      3          1           0        8.319649   28.493204   36.718098
      4          1           0       10.068022   28.939080   36.002387
      5          1           0        8.736157   30.152249   36.122931
 ---------------------------------------------------------------------
                    Distance matrix (angstroms):
                    1          2          3          4          5
     1  C    0.000000
     2  H    1.100018   0.000000
     3  H    1.107793   1.796880   0.000000
     4  H    1.156010   1.834906   1.941097   0.000000
     5  H    1.121758   1.785382   1.811114   1.805596   0.000000
 Stoichiometry    CH4
 Framework group  C1[X(CH4)]
 Deg. of freedom     9
 Full point group                 C1      NOp   1
 Largest Abelian subgroup         C1      NOp   1
 Largest concise Abelian subgroup C1      NOp   1
                         Standard orientation:                         
 ---------------------------------------------------------------------
 Center     Atomic      Atomic             Coordinates (Angstroms)
 Number     Number       Type             X           Y           Z
 ---------------------------------------------------------------------
      1          6           0        0.008157    0.003568   -0.016864
      2          1           0        0.159952    0.951293    0.520551
      3          1           0        0.909171   -0.214409   -0.623384
      4          1           0       -1.014000    0.039909   -0.555596
      5          1           0       -0.104067   -0.798202    0.759610
 ---------------------------------------------------------------------
 Rotational constants (GHZ):         159.8105303         145.7767250         144.0290514
 Standard basis: 6-31G(d) (6D, 7F)
 There are    23 symmetry adapted cartesian basis functions of A   symmetry.
 There are    23 symmetry adapted basis functions of A   symmetry.
    23 basis functions,    44 primitive gaussians,    23 cartesian basis functions
     5 alpha electrons        5 beta electrons
       nuclear repulsion energy        13.0666588644 Hartrees.
 NAtoms=    5 NActive=    5 NUniq=    5 SFac= 1.00D+00 NAtFMM=   60 NAOKFM=F Big=F
 Integral buffers will be    131072 words long.
 Raffenetti 2 integral format.
 Two-electron integral symmetry is turned on.
 One-electron integrals computed using PRISM.
 NBasis=    23 RedAO= T EigKep=  1.95D-02  NBF=    23
 NBsUse=    23 1.00D-06 EigRej= -1.00D+00 NBFU=    23
 ExpMin= 1.61D-01 ExpMax= 3.05D+03 ExpMxC= 4.57D+02 IAcc=3 IRadAn=         5 AccDes= 0.00D+00
 Harris functional with IExCor= 4538 and IRadAn=       5 diagonalized for initial guess.
 HarFok:  IExCor= 4538 AccDes= 0.00D+00 IRadAn=         5 IDoV= 1 UseB2=F ITyADJ=14
 ICtDFT=  3500011 ScaDFX=  1.000000  1.000000  1.000000  1.000000
 FoFCou: FMM=F IPFlag=           0 FMFlag=      100000 FMFlg1=           0
         NFxFlg=           0 DoJE=T BraDBF=F KetDBF=T FulRan=T
         wScrn=  0.000000 ICntrl=       500 IOpCl=  0 I1Cent=   200000004 NGrid=           0
         NMat0=    1 NMatS0=      1 NMatT0=    0 NMatD0=    1 NMtDS0=    0 NMtDT0=    0
 Petite list used in FoFCou.
 Keep R1 ints in memory in canonical form, NReq=1800744.
 Requested convergence on RMS density matrix=1.00D-08 within 128 cycles.
 Requested convergence on MAX density matrix=1.00D-06.
 Requested convergence on             energy=1.00D-06.
 No special actions if energy rises.
 Integral accuracy reduced to 1.0D-05 until final iterations.
 Initial convergence to 1.0D-05 achieved.  Increase integral accuracy.
 SCF Done:  E(RwB97X) =  -40.4945942870     A.U. after   11 cycles
            NFock= 11  Conv=0.25D-08     -V/T= 2.0144

 **********************************************************************

            Population analysis using the SCF density.

 **********************************************************************

 Orbital symmetries:
       Occupied  (A) (A) (A) (A) (A)
       Virtual   (A) (A) (A) (A) (A) (A) (A) (A) (A) (A) (A) (A)
                 (A) (A) (A) (A) (A) (A)
 The electronic state is 1-A.
 Alpha  occ. eigenvalues --  -10.26114  -0.81014  -0.50252  -0.48987  -0.47675
 Alpha virt. eigenvalues --    0.20723   0.25607   0.27043   0.27264   0.63964
 Alpha virt. eigenvalues --    0.64427   0.66605   0.97213   1.00198   1.01062
 Alpha virt. eigenvalues --    1.04296   1.19998   1.76066   1.76944   2.26656
 Alpha virt. eigenvalues --    2.33454   2.34889   4.28688
          Condensed to atoms (all electrons):
               1          2          3          4          5
     1  C    5.133215   0.382583   0.383917   0.377668   0.379178
     2  H    0.382583   0.525054  -0.025890  -0.023908  -0.025817
     3  H    0.383917  -0.025890   0.510965  -0.015036  -0.024878
     4  H    0.377668  -0.023908  -0.015036   0.531545  -0.027695
     5  H    0.379178  -0.025817  -0.024878  -0.027695   0.538979
 Mulliken charges:
               1
     1  C   -0.656560
     2  H    0.167978
     3  H    0.170921
     4  H    0.157426
     5  H    0.160234
 Sum of Mulliken charges =   0.00000
 Mulliken charges with hydrogens summed into heavy atoms:
               1
     1  C    0.000000
 Electronic spatial extent (au):  <R**2>=             36.5314
 Charge=              0.0000 electrons
 Dipole moment (field-independent basis, Debye):
    X=              0.0158    Y=              0.0005    Z=              0.0793  Tot=              0.0809
 Quadrupole moment (field-independent basis, Debye-Ang):
   XX=             -8.0318   YY=             -8.4369   ZZ=             -8.5152
   XY=             -0.0029   XZ=             -0.0574   YZ=              0.0438
 Traceless Quadrupole moment (field-independent basis, Debye-Ang):
   XX=              0.2962   YY=             -0.1089   ZZ=             -0.1872
   XY=             -0.0029   XZ=             -0.0574   YZ=              0.0438
 Octapole moment (field-independent basis, Debye-Ang**2):
  XXX=             -0.0745  YYY=              0.3005  ZZZ=              0.3069  XYY=              0.1321
  XXY=             -0.1008  XXZ=             -0.7804  XZZ=              0.0864  YZZ=             -0.1621
  YYZ=              0.7039  XYZ=              0.2183
 Hexadecapole moment (field-independent basis, Debye-Ang**3):
 XXXX=            -15.9190 YYYY=            -15.4918 ZZZZ=            -16.1109 XXXY=             -0.2321
 XXXZ=             -0.0018 YYYX=              0.2007 YYYZ=              0.1659 ZZZX=             -0.2033
 ZZZY=             -0.1034 XXYY=             -5.7246 XXZZ=             -5.0776 YYZZ=             -4.9055
 XXYZ=              0.1364 YYXZ=             -0.0430 ZZXY=              0.0040
 N-N= 1.306665886444D+01 E-N=-1.190352030928D+02  KE= 3.991837972861D+01
 1\1\GINC-NODE67\SP\RwB97X\6-31G(d)\C1H4\YANZ\22-Sep-2023\0\\# 6-31g(d)
  wb97x\\tmpdir/M2_ref_40.gjf\\0,1\C,0,9.13883,29.233013,36.62413\H,0,9
 .46581,29.533731,37.630456\H,0,8.31964875,28.49320368,36.71809837\H,0,
 10.06802234,28.93908026,36.00238665\H,0,8.73615683,30.15224905,36.1229
 3088\\Version=ES64L-G16RevA.03\State=1-A\HF=-40.4945943\RMSD=2.516e-09
 \Dipole=-0.0079841,0.0284279,0.011881\Quadrupole=0.1242444,-0.1129864,
 -0.011258,0.1121907,-0.1078803,-0.0412743\PG=C01 [X(C1H4)]\\@


 IT WAS AN ACT OF DESPARATION. FOR SIX YEARS I HAD STRUGGLED WITH THE
 BLACKBODY THEORY. I KNEW THE PROBLEM WAS FUNDAMENTAL, AND I KNEW
 THE ANSWER. I HAD TO FIND A THEORETICAL EXPLANATION AT ANY COST,
 EXCEPT FOR THE INVIOLABLITY OF THE TWO LAWS OF THERMODYNAMICS.
   -- MAX PLANCK, 1931
 Job cpu time:       0 days  0 hours  0 minutes  5.1 seconds.
 Elapsed time:       0 days  0 hours  0 minutes  2.6 seconds.
 File lengths (MBytes):  RWF=      6 Int=      0 D2E=      0 Chk=      1 Scr=      1
 Normal termination of Gaussian 16 at Fri Sep 22 16:29:27 2023.
