 Entering Gaussian System, Link 0=g16
 Initial command:
 /share/apps/gaussian/g16/l1.exe "/tmp/55568.mgr/Gau-352908.inp" -scrdir="/tmp/55568.mgr/"
 Entering Link 1 = /share/apps/gaussian/g16/l1.exe PID=    352909.
  
 Copyright (c) 1988,1990,1992,1993,1995,1998,2003,2009,2016,
            Gaussian, Inc.  All Rights Reserved.
  
 This is part of the Gaussian(R) 16 program.  It is based on
 the Gaussian(R) 09 system (copyright 2009, Gaussian, Inc.),
 the Gaussian(R) 03 system (copyright 2003, Gaussian, Inc.),
 the Gaussian(R) 98 system (copyright 1998, Gaussian, Inc.),
 the Gaussian(R) 94 system (copyright 1995, Gaussian, Inc.),
 the Gaussian 92(TM) system (copyright 1992, Gaussian, Inc.),
 the Gaussian 90(TM) system (copyright 1990, Gaussian, Inc.),
 the Gaussian 88(TM) system (copyright 1988, Gaussian, Inc.),
 the Gaussian 86(TM) system (copyright 1986, Carnegie Mellon
 University), and the Gaussian 82(TM) system (copyright 1983,
 Carnegie Mellon University). Gaussian is a federally registered
 trademark of Gaussian, Inc.
  
 This software contains proprietary and confidential information,
 including trade secrets, belonging to Gaussian, Inc.
  
 This software is provided under written license and may be
 used, copied, transmitted, or stored only in accord with that
 written license.
  
 The following legend is applicable only to US Government
 contracts under FAR:
  
                    RESTRICTED RIGHTS LEGEND
  
 Use, reproduction and disclosure by the US Government is
 subject to restrictions as set forth in subparagraphs (a)
 and (c) of the Commercial Computer Software - Restricted
 Rights clause in FAR 52.227-19.
  
 Gaussian, Inc.
 340 Quinnipiac St., Bldg. 40, Wallingford CT 06492
  
  
 ---------------------------------------------------------------
 Warning -- This program may not be used in any manner that
 competes with the business of Gaussian, Inc. or will provide
 assistance to any competitor of Gaussian, Inc.  The licensee
 of this program is prohibited from giving any competitor of
 Gaussian, Inc. access to this program.  By using this program,
 the user acknowledges that Gaussian, Inc. is engaged in the
 business of creating and licensing software in the field of
 computational chemistry and represents and warrants to the
 licensee that it is not a competitor of Gaussian, Inc. and that
 it will not use this program in any manner prohibited above.
 ---------------------------------------------------------------
  

 Cite this work as:
 Gaussian 16, Revision A.03,
 M. J. Frisch, G. W. Trucks, H. B. Schlegel, G. E. Scuseria, 
 M. A. Robb, J. R. Cheeseman, G. Scalmani, V. Barone, 
 G. A. Petersson, H. Nakatsuji, X. Li, M. Caricato, A. V. Marenich, 
 J. Bloino, B. G. Janesko, R. Gomperts, B. Mennucci, H. P. Hratchian, 
 J. V. Ortiz, A. F. Izmaylov, J. L. Sonnenberg, D. Williams-Young, 
 F. Ding, F. Lipparini, F. Egidi, J. Goings, B. Peng, A. Petrone, 
 T. Henderson, D. Ranasinghe, V. G. Zakrzewski, J. Gao, N. Rega, 
 G. Zheng, W. Liang, M. Hada, M. Ehara, K. Toyota, R. Fukuda, 
 J. Hasegawa, M. Ishida, T. Nakajima, Y. Honda, O. Kitao, H. Nakai, 
 T. Vreven, K. Throssell, J. A. Montgomery, Jr., J. E. Peralta, 
 F. Ogliaro, M. J. Bearpark, J. J. Heyd, E. N. Brothers, K. N. Kudin, 
 V. N. Staroverov, T. A. Keith, R. Kobayashi, J. Normand, 
 K. Raghavachari, A. P. Rendell, J. C. Burant, S. S. Iyengar, 
 J. Tomasi, M. Cossi, J. M. Millam, M. Klene, C. Adamo, R. Cammi, 
 J. W. Ochterski, R. L. Martin, K. Morokuma, O. Farkas, 
 J. B. Foresman, and D. J. Fox, Gaussian, Inc., Wallingford CT, 2016.
 
 ******************************************
 Gaussian 16:  ES64L-G16RevA.03 25-Dec-2016
                22-Sep-2023 
 ******************************************
 %nprocshared=2
 Will use up to    2 processors via shared memory.
 %mem=2GB
 ----------------
 # 6-31g(d) wb97x
 ----------------
 1/38=1,172=1/1;
 2/12=2,17=6,18=5,40=1/2;
 3/5=1,6=6,7=1,11=2,25=1,30=1,74=-57/1,2,3;
 4//1;
 5/5=2,38=5/2;
 6/7=2,8=2,9=2,10=2,28=1/1;
 99/5=1,9=1/99;
 --------------------
 tmpdir/M2_ref_34.gjf
 --------------------
 Symbolic Z-matrix:
 Charge =  1 Multiplicity = 1
 C                     8.00719   28.21102   36.75394 
 N                     8.47663   26.95206   37.43349 
 H                     7.74344   26.24082   37.40246 
 H                     7.16806   28.60906   37.35314 
 H                     8.82637   28.95083   36.65997 
 H                     7.68017   27.90277   35.75447 
 H                     9.38001   26.6152   36.95615 
 H                     8.66668   27.14314   38.42023 
 
                          Input orientation:                          
 ---------------------------------------------------------------------
 Center     Atomic      Atomic             Coordinates (Angstroms)
 Number     Number       Type             X           Y           Z
 ---------------------------------------------------------------------
      1          6           0        8.007186   28.211016   36.753941
      2          7           0        8.476632   26.952058   37.433493
      3          1           0        7.743438   26.240824   37.402460
      4          1           0        7.168058   28.609058   37.353136
      5          1           0        8.826367   28.950825   36.659973
      6          1           0        7.680165   27.902771   35.754467
      7          1           0        9.380009   26.615197   36.956153
      8          1           0        8.666679   27.143140   38.420234
 ---------------------------------------------------------------------
                    Distance matrix (angstroms):
                    1          2          3          4          5
     1  C    0.000000
     2  N    1.505704   0.000000
     3  H    2.090884   1.021954   0.000000
     4  H    1.105264   2.112930   2.437628   0.000000
     5  H    1.107793   2.171571   3.011334   1.829554   0.000000
     6  H    1.095859   2.087425   2.341357   1.821219   1.797815
     7  H    2.114751   1.075834   1.737156   3.004298   2.418554
     8  H    2.086102   1.022882   1.643901   2.352335   2.528190
                    6          7          8
     6  H    0.000000
     7  H    2.447727   0.000000
     8  H    2.942204   1.712045   0.000000
 Stoichiometry    CH6N(1+)
 Framework group  C1[X(CH6N)]
 Deg. of freedom    18
 Full point group                 C1      NOp   1
 Largest Abelian subgroup         C1      NOp   1
 Largest concise Abelian subgroup C1      NOp   1
                         Standard orientation:                         
 ---------------------------------------------------------------------
 Center     Atomic      Atomic             Coordinates (Angstroms)
 Number     Number       Type             X           Y           Z
 ---------------------------------------------------------------------
      1          6           0        0.793520   -0.002519   -0.000532
      2          7           0       -0.712182    0.000242   -0.001456
      3          1           0       -1.065788   -0.573587    0.766707
      4          1           0        1.115763   -1.037356   -0.217054
      5          1           0        1.200868    0.713420   -0.741277
      6          1           0        1.088784    0.310671    1.007256
      7          1           0       -1.058240    1.016570    0.067383
      8          1           0       -1.057232   -0.416295   -0.869630
 ---------------------------------------------------------------------
 Rotational constants (GHZ):          81.1783451          20.2616910          20.0530166
 Standard basis: 6-31G(d) (6D, 7F)
 There are    42 symmetry adapted cartesian basis functions of A   symmetry.
 There are    42 symmetry adapted basis functions of A   symmetry.
    42 basis functions,    80 primitive gaussians,    42 cartesian basis functions
     9 alpha electrons        9 beta electrons
       nuclear repulsion energy        47.5153587105 Hartrees.
 NAtoms=    8 NActive=    8 NUniq=    8 SFac= 1.00D+00 NAtFMM=   60 NAOKFM=F Big=F
 Integral buffers will be    131072 words long.
 Raffenetti 2 integral format.
 Two-electron integral symmetry is turned on.
 One-electron integrals computed using PRISM.
 NBasis=    42 RedAO= T EigKep=  9.25D-03  NBF=    42
 NBsUse=    42 1.00D-06 EigRej= -1.00D+00 NBFU=    42
 ExpMin= 1.61D-01 ExpMax= 4.17D+03 ExpMxC= 6.27D+02 IAcc=3 IRadAn=         5 AccDes= 0.00D+00
 Harris functional with IExCor= 4538 and IRadAn=       5 diagonalized for initial guess.
 HarFok:  IExCor= 4538 AccDes= 0.00D+00 IRadAn=         5 IDoV= 1 UseB2=F ITyADJ=14
 ICtDFT=  3500011 ScaDFX=  1.000000  1.000000  1.000000  1.000000
 FoFCou: FMM=F IPFlag=           0 FMFlag=      100000 FMFlg1=           0
         NFxFlg=           0 DoJE=T BraDBF=F KetDBF=T FulRan=T
         wScrn=  0.000000 ICntrl=       500 IOpCl=  0 I1Cent=   200000004 NGrid=           0
         NMat0=    1 NMatS0=      1 NMatT0=    0 NMatD0=    1 NMtDS0=    0 NMtDT0=    0
 Petite list used in FoFCou.
 Keep R1 ints in memory in canonical form, NReq=2543288.
 Requested convergence on RMS density matrix=1.00D-08 within 128 cycles.
 Requested convergence on MAX density matrix=1.00D-06.
 Requested convergence on             energy=1.00D-06.
 No special actions if energy rises.
 Integral accuracy reduced to 1.0D-05 until final iterations.
 Initial convergence to 1.0D-05 achieved.  Increase integral accuracy.
 SCF Done:  E(RwB97X) =  -96.1811942773     A.U. after   12 cycles
            NFock= 12  Conv=0.39D-08     -V/T= 2.0113

 **********************************************************************

            Population analysis using the SCF density.

 **********************************************************************

 Orbital symmetries:
       Occupied  (A) (A) (A) (A) (A) (A) (A) (A) (A)
       Virtual   (A) (A) (A) (A) (A) (A) (A) (A) (A) (A) (A) (A)
                 (A) (A) (A) (A) (A) (A) (A) (A) (A) (A) (A) (A)
                 (A) (A) (A) (A) (A) (A) (A) (A) (A)
 The electronic state is 1-A.
 Alpha  occ. eigenvalues --  -14.76722 -10.53537  -1.35188  -1.05563  -0.92274
 Alpha  occ. eigenvalues --   -0.91845  -0.80989  -0.73028  -0.72661
 Alpha virt. eigenvalues --   -0.08837  -0.01764  -0.00409   0.01715   0.05120
 Alpha virt. eigenvalues --    0.06194   0.06358   0.40115   0.41888   0.42793
 Alpha virt. eigenvalues --    0.55239   0.56660   0.58260   0.69284   0.72533
 Alpha virt. eigenvalues --    0.73018   0.79351   0.80291   0.84011   0.95792
 Alpha virt. eigenvalues --    1.28435   1.30192   1.42203   1.78906   1.84874
 Alpha virt. eigenvalues --    1.88554   2.09144   2.11688   2.16024   2.18877
 Alpha virt. eigenvalues --    2.44084   3.60916   4.11913
          Condensed to atoms (all electrons):
               1          2          3          4          5          6
     1  C    5.151548   0.174863  -0.018058   0.384464   0.382207   0.385348
     2  N    0.174863   6.743349   0.308924  -0.030529  -0.024937  -0.031932
     3  H   -0.018058   0.308924   0.277765  -0.001383   0.002082  -0.003137
     4  H    0.384464  -0.030529  -0.001383   0.412609  -0.015204  -0.015829
     5  H    0.382207  -0.024937   0.002082  -0.015204   0.404689  -0.018128
     6  H    0.385348  -0.031932  -0.003137  -0.015829  -0.018128   0.417534
     7  H   -0.019060   0.300120  -0.008956   0.002352  -0.002185  -0.001684
     8  H   -0.018382   0.307231  -0.012613  -0.002694  -0.001558   0.002693
               7          8
     1  C   -0.019060  -0.018382
     2  N    0.300120   0.307231
     3  H   -0.008956  -0.012613
     4  H    0.002352  -0.002694
     5  H   -0.002185  -0.001558
     6  H   -0.001684   0.002693
     7  H    0.281809  -0.010357
     8  H   -0.010357   0.283384
 Mulliken charges:
               1
     1  C   -0.422928
     2  N   -0.747089
     3  H    0.455376
     4  H    0.266214
     5  H    0.273036
     6  H    0.265134
     7  H    0.457960
     8  H    0.452296
 Sum of Mulliken charges =   1.00000
 Mulliken charges with hydrogens summed into heavy atoms:
               1
     1  C    0.381456
     2  N    0.618544
 Electronic spatial extent (au):  <R**2>=             94.4606
 Charge=              1.0000 electrons
 Dipole moment (field-independent basis, Debye):
    X=             -2.2425    Y=              0.0661    Z=             -0.0439  Tot=              2.2439
 Quadrupole moment (field-independent basis, Debye-Ang):
   XX=             -7.3571   YY=             -9.7356   ZZ=            -10.2859
   XY=              0.0526   XZ=             -0.0707   YZ=             -0.0243
 Traceless Quadrupole moment (field-independent basis, Debye-Ang):
   XX=              1.7691   YY=             -0.6094   ZZ=             -1.1597
   XY=              0.0526   XZ=             -0.0707   YZ=             -0.0243
 Octapole moment (field-independent basis, Debye-Ang**2):
  XXX=             -5.5900  YYY=              0.8172  ZZZ=              0.2600  XYY=             -2.8810
  XXY=              0.1760  XXZ=             -0.2679  XZZ=             -2.5772  YZZ=             -0.5781
  YYZ=             -0.2871  XYZ=             -0.0305
 Hexadecapole moment (field-independent basis, Debye-Ang**3):
 XXXX=            -62.8445 YYYY=            -17.4053 ZZZZ=            -17.6426 XXXY=              0.4426
 XXXZ=             -0.4313 YYYX=             -2.7314 YYYZ=             -0.0465 ZZZX=              1.1989
 ZZZY=              0.0642 XXYY=            -10.4261 XXZZ=            -11.0328 YYZZ=             -5.9502
 XXYZ=             -0.2475 YYXZ=             -1.2522 ZZXY=              2.5863
 N-N= 4.751535871048D+01 E-N=-3.124796148088D+02  KE= 9.510325912753D+01
 1\1\GINC-NODE67\SP\RwB97X\6-31G(d)\C1H6N1(1+)\YANZ\22-Sep-2023\0\\# 6-
 31g(d) wb97x\\tmpdir/M2_ref_34.gjf\\1,1\C,0,8.007186,28.211016,36.7539
 41\N,0,8.476632,26.952058,37.433493\H,0,7.743438,26.240824,37.40246\H,
 0,7.16805807,28.60905847,37.35313619\H,0,8.82636725,28.95082532,36.659
 97263\H,0,7.680165,27.902771,35.754467\H,0,9.380009,26.615197,36.95615
 3\H,0,8.666679,27.14314,38.420234\\Version=ES64L-G16RevA.03\State=1-A\
 HF=-96.1811943\RMSD=3.907e-09\Dipole=0.3031494,-0.7287472,0.3954672\Qu
 adrupole=-0.4016413,0.7086889,-0.3070476,-0.5204399,0.0870138,-0.82861
 45\PG=C01 [X(C1H6N1)]\\@


 IF YOU GET CONFUSED, LOGIC OUT YOUR DILEMMA

           --  PICKER X-RAY CORP.    DIGITAL PRINTER MANUAL CA. 1964
 Job cpu time:       0 days  0 hours  0 minutes 11.0 seconds.
 Elapsed time:       0 days  0 hours  0 minutes  5.5 seconds.
 File lengths (MBytes):  RWF=      6 Int=      0 D2E=      0 Chk=      1 Scr=      1
 Normal termination of Gaussian 16 at Fri Sep 22 16:29:16 2023.
