 Entering Gaussian System, Link 0=g16
 Initial command:
 /share/apps/gaussian/g16/l1.exe "/tmp/55568.mgr/Gau-353111.inp" -scrdir="/tmp/55568.mgr/"
 Entering Link 1 = /share/apps/gaussian/g16/l1.exe PID=    353112.
  
 Copyright (c) 1988,1990,1992,1993,1995,1998,2003,2009,2016,
            Gaussian, Inc.  All Rights Reserved.
  
 This is part of the Gaussian(R) 16 program.  It is based on
 the Gaussian(R) 09 system (copyright 2009, Gaussian, Inc.),
 the Gaussian(R) 03 system (copyright 2003, Gaussian, Inc.),
 the Gaussian(R) 98 system (copyright 1998, Gaussian, Inc.),
 the Gaussian(R) 94 system (copyright 1995, Gaussian, Inc.),
 the Gaussian 92(TM) system (copyright 1992, Gaussian, Inc.),
 the Gaussian 90(TM) system (copyright 1990, Gaussian, Inc.),
 the Gaussian 88(TM) system (copyright 1988, Gaussian, Inc.),
 the Gaussian 86(TM) system (copyright 1986, Carnegie Mellon
 University), and the Gaussian 82(TM) system (copyright 1983,
 Carnegie Mellon University). Gaussian is a federally registered
 trademark of Gaussian, Inc.
  
 This software contains proprietary and confidential information,
 including trade secrets, belonging to Gaussian, Inc.
  
 This software is provided under written license and may be
 used, copied, transmitted, or stored only in accord with that
 written license.
  
 The following legend is applicable only to US Government
 contracts under FAR:
  
                    RESTRICTED RIGHTS LEGEND
  
 Use, reproduction and disclosure by the US Government is
 subject to restrictions as set forth in subparagraphs (a)
 and (c) of the Commercial Computer Software - Restricted
 Rights clause in FAR 52.227-19.
  
 Gaussian, Inc.
 340 Quinnipiac St., Bldg. 40, Wallingford CT 06492
  
  
 ---------------------------------------------------------------
 Warning -- This program may not be used in any manner that
 competes with the business of Gaussian, Inc. or will provide
 assistance to any competitor of Gaussian, Inc.  The licensee
 of this program is prohibited from giving any competitor of
 Gaussian, Inc. access to this program.  By using this program,
 the user acknowledges that Gaussian, Inc. is engaged in the
 business of creating and licensing software in the field of
 computational chemistry and represents and warrants to the
 licensee that it is not a competitor of Gaussian, Inc. and that
 it will not use this program in any manner prohibited above.
 ---------------------------------------------------------------
  

 Cite this work as:
 Gaussian 16, Revision A.03,
 M. J. Frisch, G. W. Trucks, H. B. Schlegel, G. E. Scuseria, 
 M. A. Robb, J. R. Cheeseman, G. Scalmani, V. Barone, 
 G. A. Petersson, H. Nakatsuji, X. Li, M. Caricato, A. V. Marenich, 
 J. Bloino, B. G. Janesko, R. Gomperts, B. Mennucci, H. P. Hratchian, 
 J. V. Ortiz, A. F. Izmaylov, J. L. Sonnenberg, D. Williams-Young, 
 F. Ding, F. Lipparini, F. Egidi, J. Goings, B. Peng, A. Petrone, 
 T. Henderson, D. Ranasinghe, V. G. Zakrzewski, J. Gao, N. Rega, 
 G. Zheng, W. Liang, M. Hada, M. Ehara, K. Toyota, R. Fukuda, 
 J. Hasegawa, M. Ishida, T. Nakajima, Y. Honda, O. Kitao, H. Nakai, 
 T. Vreven, K. Throssell, J. A. Montgomery, Jr., J. E. Peralta, 
 F. Ogliaro, M. J. Bearpark, J. J. Heyd, E. N. Brothers, K. N. Kudin, 
 V. N. Staroverov, T. A. Keith, R. Kobayashi, J. Normand, 
 K. Raghavachari, A. P. Rendell, J. C. Burant, S. S. Iyengar, 
 J. Tomasi, M. Cossi, J. M. Millam, M. Klene, C. Adamo, R. Cammi, 
 J. W. Ochterski, R. L. Martin, K. Morokuma, O. Farkas, 
 J. B. Foresman, and D. J. Fox, Gaussian, Inc., Wallingford CT, 2016.
 
 ******************************************
 Gaussian 16:  ES64L-G16RevA.03 25-Dec-2016
                22-Sep-2023 
 ******************************************
 %nprocshared=2
 Will use up to    2 processors via shared memory.
 %mem=2GB
 ----------------
 # 6-31g(d) wb97x
 ----------------
 1/38=1,172=1/1;
 2/12=2,17=6,18=5,40=1/2;
 3/5=1,6=6,7=1,11=2,25=1,30=1,74=-57/1,2,3;
 4//1;
 5/5=2,38=5/2;
 6/7=2,8=2,9=2,10=2,28=1/1;
 99/5=1,9=1/99;
 -------------------
 tmpdir/M2_ref_5.gjf
 -------------------
 Symbolic Z-matrix:
 Charge = -1 Multiplicity = 1
 O                     4.96812   31.91593   37.77994 
 C                     5.22018   30.7165   37.97411 
 C                     6.5308    30.2011   37.31476 
 O                     4.62023   29.82145   38.61068 
 H                     6.76041   29.15855   37.50799 
 O                     7.23451   30.89358   36.68346 
 
                          Input orientation:                          
 ---------------------------------------------------------------------
 Center     Atomic      Atomic             Coordinates (Angstroms)
 Number     Number       Type             X           Y           Z
 ---------------------------------------------------------------------
      1          8           0        4.968123   31.915925   37.779941
      2          6           0        5.220175   30.716497   37.974112
      3          6           0        6.530805   30.201104   37.314760
      4          8           0        4.620231   29.821450   38.610678
      5          1           0        6.760409   29.158550   37.507986
      6          8           0        7.234508   30.893583   36.683465
 ---------------------------------------------------------------------
                    Distance matrix (angstroms):
                    1          2          3          4          5
     1  O    0.000000
     2  C    1.240911   0.000000
     3  C    2.366216   1.555032   0.000000
     4  O    2.279908   1.251502   2.339623   0.000000
     5  H    3.299904   2.239820   1.084884   2.497144   0.000000
     6  O    2.717341   2.398889   1.171862   3.420244   1.978623
                    6
     6  O    0.000000
 Stoichiometry    C2HO3(1-)
 Framework group  C1[X(C2HO3)]
 Deg. of freedom    12
 Full point group                 C1      NOp   1
 Largest Abelian subgroup         C1      NOp   1
 Largest concise Abelian subgroup C1      NOp   1
                         Standard orientation:                         
 ---------------------------------------------------------------------
 Center     Atomic      Atomic             Coordinates (Angstroms)
 Number     Number       Type             X           Y           Z
 ---------------------------------------------------------------------
      1          8           0       -0.620610    1.300534    0.001515
      2          6           0       -0.586621    0.060093   -0.001928
      3          6           0        0.838419   -0.562307   -0.004693
      4          8           0       -1.488282   -0.807812    0.000332
      5          1           0        0.863685   -1.646662    0.017854
      6          8           0        1.812083    0.089771    0.000888
 ---------------------------------------------------------------------
 Rotational constants (GHZ):          11.4539899           4.7033835           3.3342655
 Standard basis: 6-31G(d) (6D, 7F)
 There are    77 symmetry adapted cartesian basis functions of A   symmetry.
 There are    77 symmetry adapted basis functions of A   symmetry.
    77 basis functions,   144 primitive gaussians,    77 cartesian basis functions
    19 alpha electrons       19 beta electrons
       nuclear repulsion energy       153.5532554321 Hartrees.
 NAtoms=    6 NActive=    6 NUniq=    6 SFac= 1.00D+00 NAtFMM=   60 NAOKFM=F Big=F
 Integral buffers will be    131072 words long.
 Raffenetti 2 integral format.
 Two-electron integral symmetry is turned on.
 One-electron integrals computed using PRISM.
 NBasis=    77 RedAO= T EigKep=  2.43D-03  NBF=    77
 NBsUse=    77 1.00D-06 EigRej= -1.00D+00 NBFU=    77
 ExpMin= 1.61D-01 ExpMax= 5.48D+03 ExpMxC= 8.25D+02 IAcc=3 IRadAn=         5 AccDes= 0.00D+00
 Harris functional with IExCor= 4538 and IRadAn=       5 diagonalized for initial guess.
 HarFok:  IExCor= 4538 AccDes= 0.00D+00 IRadAn=         5 IDoV= 1 UseB2=F ITyADJ=14
 ICtDFT=  3500011 ScaDFX=  1.000000  1.000000  1.000000  1.000000
 FoFCou: FMM=F IPFlag=           0 FMFlag=      100000 FMFlg1=           0
         NFxFlg=           0 DoJE=T BraDBF=F KetDBF=T FulRan=T
         wScrn=  0.000000 ICntrl=       500 IOpCl=  0 I1Cent=   200000004 NGrid=           0
         NMat0=    1 NMatS0=      1 NMatT0=    0 NMatD0=    1 NMtDS0=    0 NMtDT0=    0
 Petite list used in FoFCou.
 Keep R1 ints in memory in canonical form, NReq=10822253.
 Requested convergence on RMS density matrix=1.00D-08 within 128 cycles.
 Requested convergence on MAX density matrix=1.00D-06.
 Requested convergence on             energy=1.00D-06.
 No special actions if energy rises.
 Integral accuracy reduced to 1.0D-05 until final iterations.
 Initial convergence to 1.0D-05 achieved.  Increase integral accuracy.
 SCF Done:  E(RwB97X) =  -302.433579877     A.U. after   17 cycles
            NFock= 17  Conv=0.29D-08     -V/T= 2.0072

 **********************************************************************

            Population analysis using the SCF density.

 **********************************************************************

 Orbital symmetries:
       Occupied  (A) (A) (A) (A) (A) (A) (A) (A) (A) (A) (A) (A)
                 (A) (A) (A) (A) (A) (A) (A)
       Virtual   (A) (A) (A) (A) (A) (A) (A) (A) (A) (A) (A) (A)
                 (A) (A) (A) (A) (A) (A) (A) (A) (A) (A) (A) (A)
                 (A) (A) (A) (A) (A) (A) (A) (A) (A) (A) (A) (A)
                 (A) (A) (A) (A) (A) (A) (A) (A) (A) (A) (A) (A)
                 (A) (A) (A) (A) (A) (A) (A) (A) (A) (A)
 The electronic state is 1-A.
 Alpha  occ. eigenvalues --  -19.04072 -18.94131 -18.93863 -10.16071 -10.14090
 Alpha  occ. eigenvalues --   -1.01614  -0.93246  -0.84867  -0.57070  -0.44826
 Alpha  occ. eigenvalues --   -0.38651  -0.34833  -0.34309  -0.29230  -0.27467
 Alpha  occ. eigenvalues --   -0.20951  -0.13359  -0.12534  -0.11161
 Alpha virt. eigenvalues --    0.24390   0.41354   0.42692   0.53556   0.59879
 Alpha virt. eigenvalues --    0.64100   0.72728   0.81347   0.90954   0.91658
 Alpha virt. eigenvalues --    0.97989   1.00089   1.03055   1.07654   1.11787
 Alpha virt. eigenvalues --    1.14647   1.18312   1.24673   1.25395   1.31303
 Alpha virt. eigenvalues --    1.32587   1.37288   1.40681   1.43256   1.46754
 Alpha virt. eigenvalues --    1.66152   1.71251   1.76760   1.84487   1.89046
 Alpha virt. eigenvalues --    1.96007   2.01998   2.06540   2.12452   2.16840
 Alpha virt. eigenvalues --    2.17974   2.21362   2.23503   2.30800   2.38749
 Alpha virt. eigenvalues --    2.41773   2.44649   2.59687   2.72496   2.73393
 Alpha virt. eigenvalues --    2.90339   2.93594   3.10071   3.21108   3.25292
 Alpha virt. eigenvalues --    3.28028   3.41640   3.50606   4.06038   4.33722
 Alpha virt. eigenvalues --    4.38350   4.69668   4.83462
          Condensed to atoms (all electrons):
               1          2          3          4          5          6
     1  O    8.264730   0.527004  -0.118017  -0.080079   0.006008   0.006086
     2  C    0.527004   4.428461   0.287371   0.460369  -0.084613  -0.061910
     3  C   -0.118017   0.287371   5.048989  -0.121032   0.269021   0.502046
     4  O   -0.080079   0.460369  -0.121032   8.342096   0.026607   0.003773
     5  H    0.006008  -0.084613   0.269021   0.026607   0.793823  -0.059677
     6  O    0.006086  -0.061910   0.502046   0.003773  -0.059677   7.995992
 Mulliken charges:
               1
     1  O   -0.605731
     2  C    0.443319
     3  C    0.131623
     4  O   -0.631733
     5  H    0.048832
     6  O   -0.386309
 Sum of Mulliken charges =  -1.00000
 Mulliken charges with hydrogens summed into heavy atoms:
               1
     1  O   -0.605731
     2  C    0.443319
     3  C    0.180454
     4  O   -0.631733
     6  O   -0.386309
 Electronic spatial extent (au):  <R**2>=            354.3286
 Charge=             -1.0000 electrons
 Dipole moment (field-independent basis, Debye):
    X=              2.5706    Y=             -1.9224    Z=             -0.0135  Tot=              3.2100
 Quadrupole moment (field-independent basis, Debye-Ang):
   XX=            -41.7601   YY=            -35.5172   ZZ=            -26.8399
   XY=             -2.3351   XZ=              0.0005   YZ=              0.0004
 Traceless Quadrupole moment (field-independent basis, Debye-Ang):
   XX=             -7.0543   YY=             -0.8115   ZZ=              7.8659
   XY=             -2.3351   XZ=              0.0005   YZ=              0.0004
 Octapole moment (field-independent basis, Debye-Ang**2):
  XXX=             -0.5631  YYY=             -2.6507  ZZZ=              0.0013  XYY=              6.9031
  XXY=              3.9935  XXZ=             -0.0358  XZZ=              0.8188  YZZ=              0.5939
  YYZ=             -0.0074  XYZ=              0.0184
 Hexadecapole moment (field-independent basis, Debye-Ang**3):
 XXXX=           -302.1149 YYYY=           -142.0375 ZZZZ=            -21.1922 XXXY=             -5.7414
 XXXZ=             -0.0237 YYYX=              3.2587 YYYZ=              0.0006 ZZZX=              0.0030
 ZZZY=              0.0207 XXYY=            -72.0083 XXZZ=            -45.3972 YYZZ=            -25.2291
 XXYZ=              0.0215 YYXZ=              0.0113 ZZXY=              0.4894
 N-N= 1.535532554321D+02 E-N=-1.028004812673D+03  KE= 3.002859586344D+02
 1\1\GINC-NODE67\SP\RwB97X\6-31G(d)\C2H1O3(1-)\YANZ\22-Sep-2023\0\\# 6-
 31g(d) wb97x\\tmpdir/M2_ref_5.gjf\\-1,1\O,0,4.968123,31.915925,37.7799
 41\C,0,5.220175,30.716497,37.974112\C,0,6.530805,30.201104,37.31476\O,
 0,4.620231,29.82145,38.610678\H,0,6.76040861,29.15854963,37.50798617\O
 ,0,7.23450825,30.89358339,36.68346476\\Version=ES64L-G16RevA.03\State=
 1-A\HF=-302.4335799\RMSD=2.946e-09\Dipole=0.98558,-0.6711086,-0.416115
 6\Quadrupole=-1.6872505,-0.4452006,2.1324511,-0.8352057,4.8921254,2.37
 12983\PG=C01 [X(C2H1O3)]\\@


 THE WORLD OF CHEMICAL REACTIONS IS LIKE A STAGE,
 ON WHICH SCENE AFTER SCENE IS CEASELESSLY PLAYED.
 THE ACTORS ON IT ARE THE ELEMENTS.
   -- CLEMENS WINKLER   BER. 30,13(1897)
 (DISCOVERER OF GERMANIUM, FEB 6, 1886)
 Job cpu time:       0 days  0 hours  0 minutes 18.7 seconds.
 Elapsed time:       0 days  0 hours  0 minutes  9.5 seconds.
 File lengths (MBytes):  RWF=      6 Int=      0 D2E=      0 Chk=      1 Scr=      1
 Normal termination of Gaussian 16 at Fri Sep 22 16:29:26 2023.
