 Entering Gaussian System, Link 0=g16
 Initial command:
 /share/apps/gaussian/g16/l1.exe "/tmp/55568.mgr/Gau-353939.inp" -scrdir="/tmp/55568.mgr/"
 Entering Link 1 = /share/apps/gaussian/g16/l1.exe PID=    353940.
  
 Copyright (c) 1988,1990,1992,1993,1995,1998,2003,2009,2016,
            Gaussian, Inc.  All Rights Reserved.
  
 This is part of the Gaussian(R) 16 program.  It is based on
 the Gaussian(R) 09 system (copyright 2009, Gaussian, Inc.),
 the Gaussian(R) 03 system (copyright 2003, Gaussian, Inc.),
 the Gaussian(R) 98 system (copyright 1998, Gaussian, Inc.),
 the Gaussian(R) 94 system (copyright 1995, Gaussian, Inc.),
 the Gaussian 92(TM) system (copyright 1992, Gaussian, Inc.),
 the Gaussian 90(TM) system (copyright 1990, Gaussian, Inc.),
 the Gaussian 88(TM) system (copyright 1988, Gaussian, Inc.),
 the Gaussian 86(TM) system (copyright 1986, Carnegie Mellon
 University), and the Gaussian 82(TM) system (copyright 1983,
 Carnegie Mellon University). Gaussian is a federally registered
 trademark of Gaussian, Inc.
  
 This software contains proprietary and confidential information,
 including trade secrets, belonging to Gaussian, Inc.
  
 This software is provided under written license and may be
 used, copied, transmitted, or stored only in accord with that
 written license.
  
 The following legend is applicable only to US Government
 contracts under FAR:
  
                    RESTRICTED RIGHTS LEGEND
  
 Use, reproduction and disclosure by the US Government is
 subject to restrictions as set forth in subparagraphs (a)
 and (c) of the Commercial Computer Software - Restricted
 Rights clause in FAR 52.227-19.
  
 Gaussian, Inc.
 340 Quinnipiac St., Bldg. 40, Wallingford CT 06492
  
  
 ---------------------------------------------------------------
 Warning -- This program may not be used in any manner that
 competes with the business of Gaussian, Inc. or will provide
 assistance to any competitor of Gaussian, Inc.  The licensee
 of this program is prohibited from giving any competitor of
 Gaussian, Inc. access to this program.  By using this program,
 the user acknowledges that Gaussian, Inc. is engaged in the
 business of creating and licensing software in the field of
 computational chemistry and represents and warrants to the
 licensee that it is not a competitor of Gaussian, Inc. and that
 it will not use this program in any manner prohibited above.
 ---------------------------------------------------------------
  

 Cite this work as:
 Gaussian 16, Revision A.03,
 M. J. Frisch, G. W. Trucks, H. B. Schlegel, G. E. Scuseria, 
 M. A. Robb, J. R. Cheeseman, G. Scalmani, V. Barone, 
 G. A. Petersson, H. Nakatsuji, X. Li, M. Caricato, A. V. Marenich, 
 J. Bloino, B. G. Janesko, R. Gomperts, B. Mennucci, H. P. Hratchian, 
 J. V. Ortiz, A. F. Izmaylov, J. L. Sonnenberg, D. Williams-Young, 
 F. Ding, F. Lipparini, F. Egidi, J. Goings, B. Peng, A. Petrone, 
 T. Henderson, D. Ranasinghe, V. G. Zakrzewski, J. Gao, N. Rega, 
 G. Zheng, W. Liang, M. Hada, M. Ehara, K. Toyota, R. Fukuda, 
 J. Hasegawa, M. Ishida, T. Nakajima, Y. Honda, O. Kitao, H. Nakai, 
 T. Vreven, K. Throssell, J. A. Montgomery, Jr., J. E. Peralta, 
 F. Ogliaro, M. J. Bearpark, J. J. Heyd, E. N. Brothers, K. N. Kudin, 
 V. N. Staroverov, T. A. Keith, R. Kobayashi, J. Normand, 
 K. Raghavachari, A. P. Rendell, J. C. Burant, S. S. Iyengar, 
 J. Tomasi, M. Cossi, J. M. Millam, M. Klene, C. Adamo, R. Cammi, 
 J. W. Ochterski, R. L. Martin, K. Morokuma, O. Farkas, 
 J. B. Foresman, and D. J. Fox, Gaussian, Inc., Wallingford CT, 2016.
 
 ******************************************
 Gaussian 16:  ES64L-G16RevA.03 25-Dec-2016
                22-Sep-2023 
 ******************************************
 %nprocshared=2
 Will use up to    2 processors via shared memory.
 %mem=2GB
 ----------------
 # 6-31g(d) wb97x
 ----------------
 1/38=1,172=1/1;
 2/12=2,17=6,18=5,40=1/2;
 3/5=1,6=6,7=1,11=2,25=1,30=1,74=-57/1,2,3;
 4//1;
 5/5=2,38=5/2;
 6/7=2,8=2,9=2,10=2,28=1/1;
 99/5=1,9=1/99;
 ---------------------
 tmpdir/M2_ref_108.gjf
 ---------------------
 Symbolic Z-matrix:
 Charge =  0 Multiplicity = 1
 C                     12.31648   31.84322   34.82981 
 H                     13.29917   32.32251   34.78048 
 H                     11.50573   32.59327   34.86232 
 H                     12.2221   31.19842   33.94445 
 H                     12.30695   31.21548   35.72843 
 
                          Input orientation:                          
 ---------------------------------------------------------------------
 Center     Atomic      Atomic             Coordinates (Angstroms)
 Number     Number       Type             X           Y           Z
 ---------------------------------------------------------------------
      1          6           0       12.316479   31.843216   34.829807
      2          1           0       13.299165   32.322507   34.780478
      3          1           0       11.505734   32.593268   34.862321
      4          1           0       12.222101   31.198423   33.944445
      5          1           0       12.306948   31.215478   35.728435
 ---------------------------------------------------------------------
                    Distance matrix (angstroms):
                    1          2          3          4          5
     1  C    0.000000
     2  H    1.094452   0.000000
     3  H    1.104963   1.815600   0.000000
     4  H    1.099332   1.767083   1.816940   0.000000
     5  H    1.096211   1.763131   1.813947   1.786088   0.000000
 Stoichiometry    CH4
 Framework group  C1[X(CH4)]
 Deg. of freedom     9
 Full point group                 C1      NOp   1
 Largest Abelian subgroup         C1      NOp   1
 Largest concise Abelian subgroup C1      NOp   1
                         Standard orientation:                         
 ---------------------------------------------------------------------
 Center     Atomic      Atomic             Coordinates (Angstroms)
 Number     Number       Type             X           Y           Z
 ---------------------------------------------------------------------
      1          6           0       -0.008010    0.000149   -0.000935
      2          1           0        0.453362   -0.089941    0.987420
      3          1           0       -1.110553    0.013362    0.070957
      4          1           0        0.368881    0.927852   -0.454642
      5          1           0        0.336372   -0.852166   -0.598126
 ---------------------------------------------------------------------
 Rotational constants (GHZ):         159.7061486         155.0954486         152.6930633
 Standard basis: 6-31G(d) (6D, 7F)
 There are    23 symmetry adapted cartesian basis functions of A   symmetry.
 There are    23 symmetry adapted basis functions of A   symmetry.
    23 basis functions,    44 primitive gaussians,    23 cartesian basis functions
     5 alpha electrons        5 beta electrons
       nuclear repulsion energy        13.3293935702 Hartrees.
 NAtoms=    5 NActive=    5 NUniq=    5 SFac= 1.00D+00 NAtFMM=   60 NAOKFM=F Big=F
 Integral buffers will be    131072 words long.
 Raffenetti 2 integral format.
 Two-electron integral symmetry is turned on.
 One-electron integrals computed using PRISM.
 NBasis=    23 RedAO= T EigKep=  1.83D-02  NBF=    23
 NBsUse=    23 1.00D-06 EigRej= -1.00D+00 NBFU=    23
 ExpMin= 1.61D-01 ExpMax= 3.05D+03 ExpMxC= 4.57D+02 IAcc=3 IRadAn=         5 AccDes= 0.00D+00
 Harris functional with IExCor= 4538 and IRadAn=       5 diagonalized for initial guess.
 HarFok:  IExCor= 4538 AccDes= 0.00D+00 IRadAn=         5 IDoV= 1 UseB2=F ITyADJ=14
 ICtDFT=  3500011 ScaDFX=  1.000000  1.000000  1.000000  1.000000
 FoFCou: FMM=F IPFlag=           0 FMFlag=      100000 FMFlg1=           0
         NFxFlg=           0 DoJE=T BraDBF=F KetDBF=T FulRan=T
         wScrn=  0.000000 ICntrl=       500 IOpCl=  0 I1Cent=   200000004 NGrid=           0
         NMat0=    1 NMatS0=      1 NMatT0=    0 NMatD0=    1 NMtDS0=    0 NMtDT0=    0
 Petite list used in FoFCou.
 Keep R1 ints in memory in canonical form, NReq=1800744.
 Requested convergence on RMS density matrix=1.00D-08 within 128 cycles.
 Requested convergence on MAX density matrix=1.00D-06.
 Requested convergence on             energy=1.00D-06.
 No special actions if energy rises.
 Integral accuracy reduced to 1.0D-05 until final iterations.
 Initial convergence to 1.0D-05 achieved.  Increase integral accuracy.
 SCF Done:  E(RwB97X) =  -40.4990936706     A.U. after   10 cycles
            NFock= 10  Conv=0.94D-08     -V/T= 2.0118

 **********************************************************************

            Population analysis using the SCF density.

 **********************************************************************

 Orbital symmetries:
       Occupied  (A) (A) (A) (A) (A)
       Virtual   (A) (A) (A) (A) (A) (A) (A) (A) (A) (A) (A) (A)
                 (A) (A) (A) (A) (A) (A)
 The electronic state is 1-A.
 Alpha  occ. eigenvalues --  -10.25126  -0.81615  -0.49860  -0.49321  -0.48988
 Alpha virt. eigenvalues --    0.21497   0.27261   0.27408   0.27471   0.63839
 Alpha virt. eigenvalues --    0.64132   0.64697   1.01160   1.01456   1.01486
 Alpha virt. eigenvalues --    1.06516   1.20689   1.75823   1.75992   2.33284
 Alpha virt. eigenvalues --    2.35244   2.36042   4.30362
          Condensed to atoms (all electrons):
               1          2          3          4          5
     1  C    5.125631   0.384779   0.385300   0.384666   0.384947
     2  H    0.384779   0.524018  -0.022007  -0.026430  -0.026690
     3  H    0.385300  -0.022007   0.514611  -0.022370  -0.022491
     4  H    0.384666  -0.026430  -0.022370   0.522966  -0.024477
     5  H    0.384947  -0.026690  -0.022491  -0.024477   0.522318
 Mulliken charges:
               1
     1  C   -0.665323
     2  H    0.166330
     3  H    0.166957
     4  H    0.165644
     5  H    0.166392
 Sum of Mulliken charges =  -0.00000
 Mulliken charges with hydrogens summed into heavy atoms:
               1
     1  C   -0.000000
 Electronic spatial extent (au):  <R**2>=             35.6790
 Charge=             -0.0000 electrons
 Dipole moment (field-independent basis, Debye):
    X=              0.0374    Y=             -0.0037    Z=              0.0066  Tot=              0.0382
 Quadrupole moment (field-independent basis, Debye-Ang):
   XX=             -8.1451   YY=             -8.2901   ZZ=             -8.3629
   XY=             -0.0023   XZ=              0.0011   YZ=              0.0027
 Traceless Quadrupole moment (field-independent basis, Debye-Ang):
   XX=              0.1209   YY=             -0.0240   ZZ=             -0.0969
   XY=             -0.0023   XZ=              0.0011   YZ=              0.0027
 Octapole moment (field-independent basis, Debye-Ang**2):
  XXX=             -0.8511  YYY=              0.1151  ZZZ=              0.4726  XYY=              0.4553
  XXY=              0.0170  XXZ=              0.1285  XZZ=              0.4917  YZZ=             -0.1470
  YYZ=             -0.5811  XYZ=             -0.0180
 Hexadecapole moment (field-independent basis, Debye-Ang**3):
 XXXX=            -15.0063 YYYY=            -15.1386 ZZZZ=            -15.1543 XXXY=             -0.0188
 XXXZ=             -0.0535 YYYX=              0.0928 YYYZ=              0.0134 ZZZX=              0.3751
 ZZZY=              0.0152 XXYY=             -5.3336 XXZZ=             -5.2240 YYZZ=             -4.9968
 XXYZ=             -0.0172 YYXZ=             -0.3241 ZZXY=             -0.0828
 N-N= 1.332939357017D+01 E-N=-1.196466537331D+02  KE= 4.002841007327D+01
 1\1\GINC-NODE67\SP\RwB97X\6-31G(d)\C1H4\YANZ\22-Sep-2023\0\\# 6-31g(d)
  wb97x\\tmpdir/M2_ref_108.gjf\\0,1\C,0,12.316479,31.843216,34.829807\H
 ,0,13.299165,32.322507,34.780478\H,0,11.50573392,32.59326831,34.862321
 06\H,0,12.222101,31.198423,33.944445\H,0,12.306948,31.215478,35.728435
 \\Version=ES64L-G16RevA.03\State=1-A\HF=-40.4990937\RMSD=9.356e-09\Dip
 ole=0.0131945,-0.0071724,0.0004139\Quadrupole=0.0265834,-0.0085419,-0.
 0180414,-0.0788737,-0.0001836,0.005682\PG=C01 [X(C1H4)]\\@


 OPTIMIST - A PESSIMIST WHO LACKS EXPERIENCE
 Job cpu time:       0 days  0 hours  0 minutes  5.1 seconds.
 Elapsed time:       0 days  0 hours  0 minutes  2.5 seconds.
 File lengths (MBytes):  RWF=      6 Int=      0 D2E=      0 Chk=      1 Scr=      1
 Normal termination of Gaussian 16 at Fri Sep 22 16:29:51 2023.
