 Entering Gaussian System, Link 0=g16
 Initial command:
 /share/apps/gaussian/g16/l1.exe "/tmp/55568.mgr/Gau-353517.inp" -scrdir="/tmp/55568.mgr/"
 Entering Link 1 = /share/apps/gaussian/g16/l1.exe PID=    353518.
  
 Copyright (c) 1988,1990,1992,1993,1995,1998,2003,2009,2016,
            Gaussian, Inc.  All Rights Reserved.
  
 This is part of the Gaussian(R) 16 program.  It is based on
 the Gaussian(R) 09 system (copyright 2009, Gaussian, Inc.),
 the Gaussian(R) 03 system (copyright 2003, Gaussian, Inc.),
 the Gaussian(R) 98 system (copyright 1998, Gaussian, Inc.),
 the Gaussian(R) 94 system (copyright 1995, Gaussian, Inc.),
 the Gaussian 92(TM) system (copyright 1992, Gaussian, Inc.),
 the Gaussian 90(TM) system (copyright 1990, Gaussian, Inc.),
 the Gaussian 88(TM) system (copyright 1988, Gaussian, Inc.),
 the Gaussian 86(TM) system (copyright 1986, Carnegie Mellon
 University), and the Gaussian 82(TM) system (copyright 1983,
 Carnegie Mellon University). Gaussian is a federally registered
 trademark of Gaussian, Inc.
  
 This software contains proprietary and confidential information,
 including trade secrets, belonging to Gaussian, Inc.
  
 This software is provided under written license and may be
 used, copied, transmitted, or stored only in accord with that
 written license.
  
 The following legend is applicable only to US Government
 contracts under FAR:
  
                    RESTRICTED RIGHTS LEGEND
  
 Use, reproduction and disclosure by the US Government is
 subject to restrictions as set forth in subparagraphs (a)
 and (c) of the Commercial Computer Software - Restricted
 Rights clause in FAR 52.227-19.
  
 Gaussian, Inc.
 340 Quinnipiac St., Bldg. 40, Wallingford CT 06492
  
  
 ---------------------------------------------------------------
 Warning -- This program may not be used in any manner that
 competes with the business of Gaussian, Inc. or will provide
 assistance to any competitor of Gaussian, Inc.  The licensee
 of this program is prohibited from giving any competitor of
 Gaussian, Inc. access to this program.  By using this program,
 the user acknowledges that Gaussian, Inc. is engaged in the
 business of creating and licensing software in the field of
 computational chemistry and represents and warrants to the
 licensee that it is not a competitor of Gaussian, Inc. and that
 it will not use this program in any manner prohibited above.
 ---------------------------------------------------------------
  

 Cite this work as:
 Gaussian 16, Revision A.03,
 M. J. Frisch, G. W. Trucks, H. B. Schlegel, G. E. Scuseria, 
 M. A. Robb, J. R. Cheeseman, G. Scalmani, V. Barone, 
 G. A. Petersson, H. Nakatsuji, X. Li, M. Caricato, A. V. Marenich, 
 J. Bloino, B. G. Janesko, R. Gomperts, B. Mennucci, H. P. Hratchian, 
 J. V. Ortiz, A. F. Izmaylov, J. L. Sonnenberg, D. Williams-Young, 
 F. Ding, F. Lipparini, F. Egidi, J. Goings, B. Peng, A. Petrone, 
 T. Henderson, D. Ranasinghe, V. G. Zakrzewski, J. Gao, N. Rega, 
 G. Zheng, W. Liang, M. Hada, M. Ehara, K. Toyota, R. Fukuda, 
 J. Hasegawa, M. Ishida, T. Nakajima, Y. Honda, O. Kitao, H. Nakai, 
 T. Vreven, K. Throssell, J. A. Montgomery, Jr., J. E. Peralta, 
 F. Ogliaro, M. J. Bearpark, J. J. Heyd, E. N. Brothers, K. N. Kudin, 
 V. N. Staroverov, T. A. Keith, R. Kobayashi, J. Normand, 
 K. Raghavachari, A. P. Rendell, J. C. Burant, S. S. Iyengar, 
 J. Tomasi, M. Cossi, J. M. Millam, M. Klene, C. Adamo, R. Cammi, 
 J. W. Ochterski, R. L. Martin, K. Morokuma, O. Farkas, 
 J. B. Foresman, and D. J. Fox, Gaussian, Inc., Wallingford CT, 2016.
 
 ******************************************
 Gaussian 16:  ES64L-G16RevA.03 25-Dec-2016
                22-Sep-2023 
 ******************************************
 %nprocshared=2
 Will use up to    2 processors via shared memory.
 %mem=2GB
 ----------------
 # 6-31g(d) wb97x
 ----------------
 1/38=1,172=1/1;
 2/12=2,17=6,18=5,40=1/2;
 3/5=1,6=6,7=1,11=2,25=1,30=1,74=-57/1,2,3;
 4//1;
 5/5=2,38=5/2;
 6/7=2,8=2,9=2,10=2,28=1/1;
 99/5=1,9=1/99;
 --------------------
 tmpdir/M2_ref_62.gjf
 --------------------
 Symbolic Z-matrix:
 Charge =  0 Multiplicity = 1
 C                     6.5308    30.2011   37.31476 
 C                     7.329     30.98657   36.59869 
 C                     8.58256   30.50288   35.93176 
 H                     5.58206   30.57419   37.79206 
 H                     6.76041   29.15855   37.50799 
 H                     7.01408   32.01936   36.47357 
 H                     8.98524   29.58364   36.43296 
 H                     9.46824   31.26495   35.94572 
 H                     8.38576   30.23446   34.87678 
 
                          Input orientation:                          
 ---------------------------------------------------------------------
 Center     Atomic      Atomic             Coordinates (Angstroms)
 Number     Number       Type             X           Y           Z
 ---------------------------------------------------------------------
      1          6           0        6.530805   30.201104   37.314760
      2          6           0        7.329002   30.986570   36.598694
      3          6           0        8.582564   30.502876   35.931757
      4          1           0        5.582058   30.574190   37.792056
      5          1           0        6.760409   29.158550   37.507986
      6          1           0        7.014081   32.019358   36.473568
      7          1           0        8.985237   29.583640   36.432956
      8          1           0        9.468244   31.264949   35.945716
      9          1           0        8.385764   30.234457   34.876776
 ---------------------------------------------------------------------
                    Distance matrix (angstroms):
                    1          2          3          4          5
     1  C    0.000000
     2  C    1.329220   0.000000
     3  C    2.492685   1.500061   0.000000
     4  H    1.125666   2.155454   3.531123   0.000000
     5  H    1.084884   2.119379   2.758978   1.863664   0.000000
     6  H    2.060875   1.086960   2.247980   2.424378   3.052637
     7  H    2.680126   2.176878   1.121758   3.796046   2.507240
     8  H    3.410952   2.253937   1.168495   4.357586   3.769613
     9  H    3.063617   2.155788   1.106239   4.058946   3.274542
                    6          7          8          9
     6  H    0.000000
     7  H    3.133661   0.000000
     8  H    2.621198   1.815902   0.000000
     9  H    2.759915   1.790147   1.837474   0.000000
 Stoichiometry    C3H6
 Framework group  C1[X(C3H6)]
 Deg. of freedom    21
 Full point group                 C1      NOp   1
 Largest Abelian subgroup         C1      NOp   1
 Largest concise Abelian subgroup C1      NOp   1
                         Standard orientation:                         
 ---------------------------------------------------------------------
 Center     Atomic      Atomic             Coordinates (Angstroms)
 Number     Number       Type             X           Y           Z
 ---------------------------------------------------------------------
      1          6           0        1.264866   -0.231558    0.000955
      2          6           0        0.137036    0.471794   -0.010141
      3          6           0       -1.226568   -0.153020    0.009174
      4          1           0        2.281215    0.252301    0.007248
      5          1           0        1.275046   -1.316074   -0.025410
      6          1           0        0.236002    1.554112    0.006500
      7          1           0       -1.202982   -1.201327   -0.389369
      8          1           0       -2.025286    0.397903   -0.641913
      9          1           0       -1.616002   -0.210213    1.043018
 ---------------------------------------------------------------------
 Rotational constants (GHZ):          45.2951861           9.3099072           8.1372217
 Standard basis: 6-31G(d) (6D, 7F)
 There are    57 symmetry adapted cartesian basis functions of A   symmetry.
 There are    57 symmetry adapted basis functions of A   symmetry.
    57 basis functions,   108 primitive gaussians,    57 cartesian basis functions
    12 alpha electrons       12 beta electrons
       nuclear repulsion energy        70.2437533748 Hartrees.
 NAtoms=    9 NActive=    9 NUniq=    9 SFac= 1.00D+00 NAtFMM=   60 NAOKFM=F Big=F
 Integral buffers will be    131072 words long.
 Raffenetti 2 integral format.
 Two-electron integral symmetry is turned on.
 One-electron integrals computed using PRISM.
 NBasis=    57 RedAO= T EigKep=  5.20D-03  NBF=    57
 NBsUse=    57 1.00D-06 EigRej= -1.00D+00 NBFU=    57
 ExpMin= 1.61D-01 ExpMax= 3.05D+03 ExpMxC= 4.57D+02 IAcc=3 IRadAn=         5 AccDes= 0.00D+00
 Harris functional with IExCor= 4538 and IRadAn=       5 diagonalized for initial guess.
 HarFok:  IExCor= 4538 AccDes= 0.00D+00 IRadAn=         5 IDoV= 1 UseB2=F ITyADJ=14
 ICtDFT=  3500011 ScaDFX=  1.000000  1.000000  1.000000  1.000000
 FoFCou: FMM=F IPFlag=           0 FMFlag=      100000 FMFlg1=           0
         NFxFlg=           0 DoJE=T BraDBF=F KetDBF=T FulRan=T
         wScrn=  0.000000 ICntrl=       500 IOpCl=  0 I1Cent=   200000004 NGrid=           0
         NMat0=    1 NMatS0=      1 NMatT0=    0 NMatD0=    1 NMtDS0=    0 NMtDT0=    0
 Petite list used in FoFCou.
 Keep R1 ints in memory in canonical form, NReq=4494208.
 Requested convergence on RMS density matrix=1.00D-08 within 128 cycles.
 Requested convergence on MAX density matrix=1.00D-06.
 Requested convergence on             energy=1.00D-06.
 No special actions if energy rises.
 Integral accuracy reduced to 1.0D-05 until final iterations.
 Initial convergence to 1.0D-05 achieved.  Increase integral accuracy.
 SCF Done:  E(RwB97X) =  -117.861074864     A.U. after   13 cycles
            NFock= 13  Conv=0.39D-08     -V/T= 2.0117

 **********************************************************************

            Population analysis using the SCF density.

 **********************************************************************

 Orbital symmetries:
       Occupied  (A) (A) (A) (A) (A) (A) (A) (A) (A) (A) (A) (A)
       Virtual   (A) (A) (A) (A) (A) (A) (A) (A) (A) (A) (A) (A)
                 (A) (A) (A) (A) (A) (A) (A) (A) (A) (A) (A) (A)
                 (A) (A) (A) (A) (A) (A) (A) (A) (A) (A) (A) (A)
                 (A) (A) (A) (A) (A) (A) (A) (A) (A)
 The electronic state is 1-A.
 Alpha  occ. eigenvalues --  -10.27431 -10.27243 -10.26028  -0.91115  -0.79971
 Alpha  occ. eigenvalues --   -0.66755  -0.56778  -0.52160  -0.51493  -0.45989
 Alpha  occ. eigenvalues --   -0.44295  -0.34961
 Alpha virt. eigenvalues --    0.11700   0.20074   0.22482   0.24500   0.27013
 Alpha virt. eigenvalues --    0.27879   0.28769   0.38958   0.46701   0.60096
 Alpha virt. eigenvalues --    0.64360   0.64723   0.71128   0.74282   0.76881
 Alpha virt. eigenvalues --    0.79622   0.85871   0.88889   0.96223   0.97929
 Alpha virt. eigenvalues --    0.99723   1.01561   1.04258   1.06707   1.23105
 Alpha virt. eigenvalues --    1.34258   1.41654   1.52193   1.61735   1.82240
 Alpha virt. eigenvalues --    1.88634   1.97908   2.04980   2.13874   2.19142
 Alpha virt. eigenvalues --    2.32182   2.37142   2.38532   2.56504   2.61122
 Alpha virt. eigenvalues --    2.88129   2.95925   4.23179   4.31575   4.51330
          Condensed to atoms (all electrons):
               1          2          3          4          5          6
     1  C    5.014921   0.681307  -0.048489   0.375836   0.384119  -0.041711
     2  C    0.681307   4.804136   0.370313  -0.027950  -0.040188   0.384044
     3  C   -0.048489   0.370313   5.108640   0.003887  -0.007471  -0.043286
     4  H    0.375836  -0.027950   0.003887   0.538345  -0.035036  -0.005991
     5  H    0.384119  -0.040188  -0.007471  -0.035036   0.538112   0.004669
     6  H   -0.041711   0.384044  -0.043286  -0.005991   0.004669   0.545498
     7  H   -0.003418  -0.037407   0.381279   0.000063   0.004475   0.003230
     8  H    0.002054  -0.025982   0.370469  -0.000105   0.000049  -0.002363
     9  H   -0.003517  -0.033011   0.376478  -0.000129   0.000361   0.001033
               7          8          9
     1  C   -0.003418   0.002054  -0.003517
     2  C   -0.037407  -0.025982  -0.033011
     3  C    0.381279   0.370469   0.376478
     4  H    0.000063  -0.000105  -0.000129
     5  H    0.004475   0.000049   0.000361
     6  H    0.003230  -0.002363   0.001033
     7  H    0.540058  -0.027142  -0.025820
     8  H   -0.027142   0.559273  -0.027102
     9  H   -0.025820  -0.027102   0.535919
 Mulliken charges:
               1
     1  C   -0.361103
     2  C   -0.075263
     3  C   -0.511819
     4  H    0.151079
     5  H    0.150910
     6  H    0.154877
     7  H    0.164681
     8  H    0.150849
     9  H    0.175788
 Sum of Mulliken charges =   0.00000
 Mulliken charges with hydrogens summed into heavy atoms:
               1
     1  C   -0.059114
     2  C    0.079615
     3  C   -0.020501
 Electronic spatial extent (au):  <R**2>=            197.7831
 Charge=              0.0000 electrons
 Dipole moment (field-independent basis, Debye):
    X=             -0.2721    Y=              0.0198    Z=              0.0569  Tot=              0.2787
 Quadrupole moment (field-independent basis, Debye-Ang):
   XX=            -18.9115   YY=            -18.7299   ZZ=            -21.4019
   XY=              0.0087   XZ=             -0.0113   YZ=              0.0441
 Traceless Quadrupole moment (field-independent basis, Debye-Ang):
   XX=              0.7696   YY=              0.9512   ZZ=             -1.7208
   XY=              0.0087   XZ=             -0.0113   YZ=              0.0441
 Octapole moment (field-independent basis, Debye-Ang**2):
  XXX=              2.3409  YYY=              0.0250  ZZZ=              0.7907  XYY=              0.7657
  XXY=              0.5772  XXZ=             -0.1932  XZZ=             -2.2346  YZZ=             -0.1213
  YYZ=             -0.4145  XYZ=              0.2387
 Hexadecapole moment (field-independent basis, Debye-Ang**3):
 XXXX=           -179.8209 YYYY=            -50.4662 ZZZZ=            -29.2241 XXXY=              0.7167
 XXXZ=              0.8733 YYYX=             -0.0101 YYYZ=              0.6821 ZZZX=             -1.2003
 ZZZY=             -0.1928 XXYY=            -39.8734 XXZZ=            -36.5383 YYZZ=            -14.6147
 XXYZ=             -0.6513 YYXZ=              0.4959 ZZXY=             -0.0260
 N-N= 7.024375337475D+01 E-N=-4.124230078716D+02  KE= 1.165013539318D+02
 1\1\GINC-NODE67\SP\RwB97X\6-31G(d)\C3H6\YANZ\22-Sep-2023\0\\# 6-31g(d)
  wb97x\\tmpdir/M2_ref_62.gjf\\0,1\C,0,6.530805,30.201104,37.31476\C,0,
 7.329002,30.98657,36.598694\C,0,8.582564,30.502876,35.931757\H,0,5.582
 05829,30.57418978,37.79205568\H,0,6.76040861,29.15854963,37.50798617\H
 ,0,7.014081,32.019358,36.473568\H,0,8.98523717,29.58363995,36.43295612
 \H,0,9.46824422,31.26494934,35.94571635\H,0,8.385764,30.234457,34.8767
 76\\Version=ES64L-G16RevA.03\State=1-A\HF=-117.8610749\RMSD=3.868e-09\
 Dipole=0.0758991,0.0119268,-0.0782296\Quadrupole=0.0886575,0.5742914,-
 0.6629488,-0.2783292,-0.7754611,-0.4073771\PG=C01 [X(C3H6)]\\@


 IF GOD HAD MEANT MAN TO SEE THE SUN RISE, HE
 WOULD HAVE SCHEDULED IT FOR A LATER HOUR.
 Job cpu time:       0 days  0 hours  0 minutes 16.3 seconds.
 Elapsed time:       0 days  0 hours  0 minutes  8.2 seconds.
 File lengths (MBytes):  RWF=      6 Int=      0 D2E=      0 Chk=      1 Scr=      1
 Normal termination of Gaussian 16 at Fri Sep 22 16:29:42 2023.
