 Entering Gaussian System, Link 0=g16
 Initial command:
 /share/apps/gaussian/g16/l1.exe "/tmp/55568.mgr/Gau-353708.inp" -scrdir="/tmp/55568.mgr/"
 Entering Link 1 = /share/apps/gaussian/g16/l1.exe PID=    353709.
  
 Copyright (c) 1988,1990,1992,1993,1995,1998,2003,2009,2016,
            Gaussian, Inc.  All Rights Reserved.
  
 This is part of the Gaussian(R) 16 program.  It is based on
 the Gaussian(R) 09 system (copyright 2009, Gaussian, Inc.),
 the Gaussian(R) 03 system (copyright 2003, Gaussian, Inc.),
 the Gaussian(R) 98 system (copyright 1998, Gaussian, Inc.),
 the Gaussian(R) 94 system (copyright 1995, Gaussian, Inc.),
 the Gaussian 92(TM) system (copyright 1992, Gaussian, Inc.),
 the Gaussian 90(TM) system (copyright 1990, Gaussian, Inc.),
 the Gaussian 88(TM) system (copyright 1988, Gaussian, Inc.),
 the Gaussian 86(TM) system (copyright 1986, Carnegie Mellon
 University), and the Gaussian 82(TM) system (copyright 1983,
 Carnegie Mellon University). Gaussian is a federally registered
 trademark of Gaussian, Inc.
  
 This software contains proprietary and confidential information,
 including trade secrets, belonging to Gaussian, Inc.
  
 This software is provided under written license and may be
 used, copied, transmitted, or stored only in accord with that
 written license.
  
 The following legend is applicable only to US Government
 contracts under FAR:
  
                    RESTRICTED RIGHTS LEGEND
  
 Use, reproduction and disclosure by the US Government is
 subject to restrictions as set forth in subparagraphs (a)
 and (c) of the Commercial Computer Software - Restricted
 Rights clause in FAR 52.227-19.
  
 Gaussian, Inc.
 340 Quinnipiac St., Bldg. 40, Wallingford CT 06492
  
  
 ---------------------------------------------------------------
 Warning -- This program may not be used in any manner that
 competes with the business of Gaussian, Inc. or will provide
 assistance to any competitor of Gaussian, Inc.  The licensee
 of this program is prohibited from giving any competitor of
 Gaussian, Inc. access to this program.  By using this program,
 the user acknowledges that Gaussian, Inc. is engaged in the
 business of creating and licensing software in the field of
 computational chemistry and represents and warrants to the
 licensee that it is not a competitor of Gaussian, Inc. and that
 it will not use this program in any manner prohibited above.
 ---------------------------------------------------------------
  

 Cite this work as:
 Gaussian 16, Revision A.03,
 M. J. Frisch, G. W. Trucks, H. B. Schlegel, G. E. Scuseria, 
 M. A. Robb, J. R. Cheeseman, G. Scalmani, V. Barone, 
 G. A. Petersson, H. Nakatsuji, X. Li, M. Caricato, A. V. Marenich, 
 J. Bloino, B. G. Janesko, R. Gomperts, B. Mennucci, H. P. Hratchian, 
 J. V. Ortiz, A. F. Izmaylov, J. L. Sonnenberg, D. Williams-Young, 
 F. Ding, F. Lipparini, F. Egidi, J. Goings, B. Peng, A. Petrone, 
 T. Henderson, D. Ranasinghe, V. G. Zakrzewski, J. Gao, N. Rega, 
 G. Zheng, W. Liang, M. Hada, M. Ehara, K. Toyota, R. Fukuda, 
 J. Hasegawa, M. Ishida, T. Nakajima, Y. Honda, O. Kitao, H. Nakai, 
 T. Vreven, K. Throssell, J. A. Montgomery, Jr., J. E. Peralta, 
 F. Ogliaro, M. J. Bearpark, J. J. Heyd, E. N. Brothers, K. N. Kudin, 
 V. N. Staroverov, T. A. Keith, R. Kobayashi, J. Normand, 
 K. Raghavachari, A. P. Rendell, J. C. Burant, S. S. Iyengar, 
 J. Tomasi, M. Cossi, J. M. Millam, M. Klene, C. Adamo, R. Cammi, 
 J. W. Ochterski, R. L. Martin, K. Morokuma, O. Farkas, 
 J. B. Foresman, and D. J. Fox, Gaussian, Inc., Wallingford CT, 2016.
 
 ******************************************
 Gaussian 16:  ES64L-G16RevA.03 25-Dec-2016
                22-Sep-2023 
 ******************************************
 %nprocshared=2
 Will use up to    2 processors via shared memory.
 %mem=2GB
 ----------------
 # 6-31g(d) wb97x
 ----------------
 1/38=1,172=1/1;
 2/12=2,17=6,18=5,40=1/2;
 3/5=1,6=6,7=1,11=2,25=1,30=1,74=-57/1,2,3;
 4//1;
 5/5=2,38=5/2;
 6/7=2,8=2,9=2,10=2,28=1/1;
 99/5=1,9=1/99;
 --------------------
 tmpdir/M2_ref_76.gjf
 --------------------
 Symbolic Z-matrix:
 Charge =  0 Multiplicity = 1
 C                     8.69479   33.33164   34.69748 
 C                     8.6207    34.28202   35.89085 
 H                     9.49316   32.5665   34.77114 
 H                     7.731     32.82662   34.56492 
 H                     8.86706   33.89626   33.77136 
 H                     7.73063   34.91407   35.82268 
 H                     9.49422   34.94152   35.93921 
 H                     8.56128   33.72644   36.8319 
 
                          Input orientation:                          
 ---------------------------------------------------------------------
 Center     Atomic      Atomic             Coordinates (Angstroms)
 Number     Number       Type             X           Y           Z
 ---------------------------------------------------------------------
      1          6           0        8.694786   33.331639   34.697477
      2          6           0        8.620704   34.282025   35.890846
      3          1           0        9.493161   32.566498   34.771140
      4          1           0        7.730997   32.826618   34.564923
      5          1           0        8.867058   33.896258   33.771357
      6          1           0        7.730628   34.914070   35.822681
      7          1           0        9.494224   34.941523   35.939211
      8          1           0        8.561284   33.726441   36.831900
 ---------------------------------------------------------------------
                    Distance matrix (angstroms):
                    1          2          3          4          5
     1  C    0.000000
     2  C    1.527367   0.000000
     3  H    1.108273   2.226647   0.000000
     4  H    1.096132   2.160523   1.793157   0.000000
     5  H    1.098258   2.168350   1.777592   1.750575   0.000000
     6  H    2.167896   1.093784   3.118230   2.437091   2.556432
     7  H    2.184658   1.095588   2.646722   3.077411   2.487068
     8  H    2.174731   1.094435   2.541770   2.576479   3.080464
                    6          7          8
     6  H    0.000000
     7  H    1.767655   0.000000
     8  H    1.766062   1.773047   0.000000
 Stoichiometry    C2H6
 Framework group  C1[X(C2H6)]
 Deg. of freedom    18
 Full point group                 C1      NOp   1
 Largest Abelian subgroup         C1      NOp   1
 Largest concise Abelian subgroup C1      NOp   1
                         Standard orientation:                         
 ---------------------------------------------------------------------
 Center     Atomic      Atomic             Coordinates (Angstroms)
 Number     Number       Type             X           Y           Z
 ---------------------------------------------------------------------
      1          6           0        0.762150   -0.005093   -0.002766
      2          6           0       -0.765214   -0.005141    0.000222
      3          1           0        1.219050   -0.993773   -0.207761
      4          1           0        1.131748    0.716069   -0.740892
      5          1           0        1.144668    0.337218    0.968148
      6          1           0       -1.148315    1.017287    0.065329
      7          1           0       -1.169321   -0.566636    0.849771
      8          1           0       -1.159445   -0.448765   -0.919326
 ---------------------------------------------------------------------
 Rotational constants (GHZ):          79.9398578          19.9807657          19.9244879
 Standard basis: 6-31G(d) (6D, 7F)
 There are    42 symmetry adapted cartesian basis functions of A   symmetry.
 There are    42 symmetry adapted basis functions of A   symmetry.
    42 basis functions,    80 primitive gaussians,    42 cartesian basis functions
     9 alpha electrons        9 beta electrons
       nuclear repulsion energy        42.1212590362 Hartrees.
 NAtoms=    8 NActive=    8 NUniq=    8 SFac= 1.00D+00 NAtFMM=   60 NAOKFM=F Big=F
 Integral buffers will be    131072 words long.
 Raffenetti 2 integral format.
 Two-electron integral symmetry is turned on.
 One-electron integrals computed using PRISM.
 NBasis=    42 RedAO= T EigKep=  8.41D-03  NBF=    42
 NBsUse=    42 1.00D-06 EigRej= -1.00D+00 NBFU=    42
 ExpMin= 1.61D-01 ExpMax= 3.05D+03 ExpMxC= 4.57D+02 IAcc=3 IRadAn=         5 AccDes= 0.00D+00
 Harris functional with IExCor= 4538 and IRadAn=       5 diagonalized for initial guess.
 HarFok:  IExCor= 4538 AccDes= 0.00D+00 IRadAn=         5 IDoV= 1 UseB2=F ITyADJ=14
 ICtDFT=  3500011 ScaDFX=  1.000000  1.000000  1.000000  1.000000
 FoFCou: FMM=F IPFlag=           0 FMFlag=      100000 FMFlg1=           0
         NFxFlg=           0 DoJE=T BraDBF=F KetDBF=T FulRan=T
         wScrn=  0.000000 ICntrl=       500 IOpCl=  0 I1Cent=   200000004 NGrid=           0
         NMat0=    1 NMatS0=      1 NMatT0=    0 NMatD0=    1 NMtDS0=    0 NMtDT0=    0
 Petite list used in FoFCou.
 Keep R1 ints in memory in canonical form, NReq=2543288.
 Requested convergence on RMS density matrix=1.00D-08 within 128 cycles.
 Requested convergence on MAX density matrix=1.00D-06.
 Requested convergence on             energy=1.00D-06.
 No special actions if energy rises.
 Integral accuracy reduced to 1.0D-05 until final iterations.
 Initial convergence to 1.0D-05 achieved.  Increase integral accuracy.
 SCF Done:  E(RwB97X) =  -79.8007655492     A.U. after   12 cycles
            NFock= 12  Conv=0.26D-08     -V/T= 2.0109

 **********************************************************************

            Population analysis using the SCF density.

 **********************************************************************

 Orbital symmetries:
       Occupied  (A) (A) (A) (A) (A) (A) (A) (A) (A)
       Virtual   (A) (A) (A) (A) (A) (A) (A) (A) (A) (A) (A) (A)
                 (A) (A) (A) (A) (A) (A) (A) (A) (A) (A) (A) (A)
                 (A) (A) (A) (A) (A) (A) (A) (A) (A)
 The electronic state is 1-A.
 Alpha  occ. eigenvalues --  -10.25630 -10.25475  -0.87869  -0.73416  -0.54178
 Alpha  occ. eigenvalues --   -0.54001  -0.46745  -0.44191  -0.43917
 Alpha virt. eigenvalues --    0.19997   0.25318   0.25731   0.25926   0.29081
 Alpha virt. eigenvalues --    0.29480   0.34024   0.61785   0.64839   0.64951
 Alpha virt. eigenvalues --    0.74096   0.75481   0.78887   0.99897   1.00001
 Alpha virt. eigenvalues --    1.02548   1.03814   1.04011   1.09923   1.17303
 Alpha virt. eigenvalues --    1.55070   1.61846   1.63052   2.04466   2.07710
 Alpha virt. eigenvalues --    2.10184   2.36037   2.38313   2.44498   2.45793
 Alpha virt. eigenvalues --    2.70225   4.27223   4.49284
          Condensed to atoms (all electrons):
               1          2          3          4          5          6
     1  C    5.052108   0.354496   0.387582   0.388937   0.388223  -0.034185
     2  C    0.354496   5.047269  -0.030226  -0.036013  -0.035324   0.389818
     3  H    0.387582  -0.030226   0.544753  -0.026804  -0.028786   0.003706
     4  H    0.388937  -0.036013  -0.026804   0.551589  -0.030824  -0.004772
     5  H    0.388223  -0.035324  -0.028786  -0.030824   0.554532  -0.002227
     6  H   -0.034185   0.389818   0.003706  -0.004772  -0.002227   0.547998
     7  H   -0.033660   0.389157  -0.001726   0.004127  -0.004619  -0.028757
     8  H   -0.034486   0.388925  -0.003993  -0.002263   0.004150  -0.028684
               7          8
     1  C   -0.033660  -0.034486
     2  C    0.389157   0.388925
     3  H   -0.001726  -0.003993
     4  H    0.004127  -0.002263
     5  H   -0.004619   0.004150
     6  H   -0.028757  -0.028684
     7  H    0.546915  -0.028117
     8  H   -0.028117   0.547523
 Mulliken charges:
               1
     1  C   -0.469016
     2  C   -0.468102
     3  H    0.155492
     4  H    0.156022
     5  H    0.154875
     6  H    0.157103
     7  H    0.156681
     8  H    0.156944
 Sum of Mulliken charges =   0.00000
 Mulliken charges with hydrogens summed into heavy atoms:
               1
     1  C   -0.002626
     2  C    0.002626
 Electronic spatial extent (au):  <R**2>=            109.5338
 Charge=              0.0000 electrons
 Dipole moment (field-independent basis, Debye):
    X=             -0.0062    Y=              0.0360    Z=              0.0061  Tot=              0.0370
 Quadrupole moment (field-independent basis, Debye-Ang):
   XX=            -15.2421   YY=            -14.6486   ZZ=            -14.7498
   XY=             -0.0481   XZ=              0.0002   YZ=             -0.0044
 Traceless Quadrupole moment (field-independent basis, Debye-Ang):
   XX=             -0.3619   YY=              0.2316   ZZ=              0.1303
   XY=             -0.0481   XZ=              0.0002   YZ=             -0.0044
 Octapole moment (field-independent basis, Debye-Ang**2):
  XXX=             -0.0100  YYY=              0.2046  ZZZ=              0.2187  XYY=              0.0838
  XXY=             -0.1052  XXZ=              0.0242  XZZ=             -0.1405  YZZ=             -0.0681
  YYZ=             -0.2136  XYZ=              0.0254
 Hexadecapole moment (field-independent basis, Debye-Ang**3):
 XXXX=            -92.6670 YYYY=            -28.6207 ZZZZ=            -28.4676 XXXY=             -0.2413
 XXXZ=             -0.0302 YYYX=             -1.2435 YYYZ=             -0.0463 ZZZX=              0.5423
 ZZZY=              0.0161 XXYY=            -18.8629 XXZZ=            -19.0966 YYZZ=             -9.4966
 XXYZ=              0.0315 YYXZ=             -0.5398 ZZXY=              1.2054
 N-N= 4.212125903617D+01 E-N=-2.679773838217D+02  KE= 7.893930228278D+01
 1\1\GINC-NODE67\SP\RwB97X\6-31G(d)\C2H6\YANZ\22-Sep-2023\0\\# 6-31g(d)
  wb97x\\tmpdir/M2_ref_76.gjf\\0,1\C,0,8.694786,33.331639,34.697477\C,0
 ,8.620704,34.282025,35.890846\H,0,9.49316132,32.56649801,34.77113964\H
 ,0,7.730997,32.826618,34.564923\H,0,8.867058,33.896258,33.771357\H,0,7
 .730628,34.91407,35.822681\H,0,9.494224,34.941523,35.939211\H,0,8.5612
 84,33.726441,36.8319\\Version=ES64L-G16RevA.03\State=1-A\HF=-79.800765
 5\RMSD=2.570e-09\Dipole=-0.0114707,0.008026,-0.0039745\Quadrupole=0.16
 03765,-0.0220087,-0.1383678,-0.0300626,0.0106309,-0.1825062\PG=C01 [X(
 C2H6)]\\@


 ... I FELL INTO A REVERIE ... THE ATOMS WERE GAMBOLING BEFORE MY EYES
 ... I SAW HOW TWO SMALL ONES UNITED TO FORM A PAIR;
 HOW THE LARGER ONES SEIZED TWO OF THE SMALLER ONES;
 HOW STILL LARGER ONES KEPT HOLD OF THREE OR FOUR
 SMALLER ONES ... I SAW HOW THE LARGER ONES FORMED A CHAIN ...
 THIS WAS THE ORIGIN OF THE STRUCTURE THEORY.

                                   -- C.F.KEKULE VON STRADONITZ
 Job cpu time:       0 days  0 hours  0 minutes 10.4 seconds.
 Elapsed time:       0 days  0 hours  0 minutes  5.3 seconds.
 File lengths (MBytes):  RWF=      6 Int=      0 D2E=      0 Chk=      1 Scr=      1
 Normal termination of Gaussian 16 at Fri Sep 22 16:29:46 2023.
