 Entering Gaussian System, Link 0=g16
 Initial command:
 /share/apps/gaussian/g16/l1.exe "/tmp/55568.mgr/Gau-353269.inp" -scrdir="/tmp/55568.mgr/"
 Entering Link 1 = /share/apps/gaussian/g16/l1.exe PID=    353270.
  
 Copyright (c) 1988,1990,1992,1993,1995,1998,2003,2009,2016,
            Gaussian, Inc.  All Rights Reserved.
  
 This is part of the Gaussian(R) 16 program.  It is based on
 the Gaussian(R) 09 system (copyright 2009, Gaussian, Inc.),
 the Gaussian(R) 03 system (copyright 2003, Gaussian, Inc.),
 the Gaussian(R) 98 system (copyright 1998, Gaussian, Inc.),
 the Gaussian(R) 94 system (copyright 1995, Gaussian, Inc.),
 the Gaussian 92(TM) system (copyright 1992, Gaussian, Inc.),
 the Gaussian 90(TM) system (copyright 1990, Gaussian, Inc.),
 the Gaussian 88(TM) system (copyright 1988, Gaussian, Inc.),
 the Gaussian 86(TM) system (copyright 1986, Carnegie Mellon
 University), and the Gaussian 82(TM) system (copyright 1983,
 Carnegie Mellon University). Gaussian is a federally registered
 trademark of Gaussian, Inc.
  
 This software contains proprietary and confidential information,
 including trade secrets, belonging to Gaussian, Inc.
  
 This software is provided under written license and may be
 used, copied, transmitted, or stored only in accord with that
 written license.
  
 The following legend is applicable only to US Government
 contracts under FAR:
  
                    RESTRICTED RIGHTS LEGEND
  
 Use, reproduction and disclosure by the US Government is
 subject to restrictions as set forth in subparagraphs (a)
 and (c) of the Commercial Computer Software - Restricted
 Rights clause in FAR 52.227-19.
  
 Gaussian, Inc.
 340 Quinnipiac St., Bldg. 40, Wallingford CT 06492
  
  
 ---------------------------------------------------------------
 Warning -- This program may not be used in any manner that
 competes with the business of Gaussian, Inc. or will provide
 assistance to any competitor of Gaussian, Inc.  The licensee
 of this program is prohibited from giving any competitor of
 Gaussian, Inc. access to this program.  By using this program,
 the user acknowledges that Gaussian, Inc. is engaged in the
 business of creating and licensing software in the field of
 computational chemistry and represents and warrants to the
 licensee that it is not a competitor of Gaussian, Inc. and that
 it will not use this program in any manner prohibited above.
 ---------------------------------------------------------------
  

 Cite this work as:
 Gaussian 16, Revision A.03,
 M. J. Frisch, G. W. Trucks, H. B. Schlegel, G. E. Scuseria, 
 M. A. Robb, J. R. Cheeseman, G. Scalmani, V. Barone, 
 G. A. Petersson, H. Nakatsuji, X. Li, M. Caricato, A. V. Marenich, 
 J. Bloino, B. G. Janesko, R. Gomperts, B. Mennucci, H. P. Hratchian, 
 J. V. Ortiz, A. F. Izmaylov, J. L. Sonnenberg, D. Williams-Young, 
 F. Ding, F. Lipparini, F. Egidi, J. Goings, B. Peng, A. Petrone, 
 T. Henderson, D. Ranasinghe, V. G. Zakrzewski, J. Gao, N. Rega, 
 G. Zheng, W. Liang, M. Hada, M. Ehara, K. Toyota, R. Fukuda, 
 J. Hasegawa, M. Ishida, T. Nakajima, Y. Honda, O. Kitao, H. Nakai, 
 T. Vreven, K. Throssell, J. A. Montgomery, Jr., J. E. Peralta, 
 F. Ogliaro, M. J. Bearpark, J. J. Heyd, E. N. Brothers, K. N. Kudin, 
 V. N. Staroverov, T. A. Keith, R. Kobayashi, J. Normand, 
 K. Raghavachari, A. P. Rendell, J. C. Burant, S. S. Iyengar, 
 J. Tomasi, M. Cossi, J. M. Millam, M. Klene, C. Adamo, R. Cammi, 
 J. W. Ochterski, R. L. Martin, K. Morokuma, O. Farkas, 
 J. B. Foresman, and D. J. Fox, Gaussian, Inc., Wallingford CT, 2016.
 
 ******************************************
 Gaussian 16:  ES64L-G16RevA.03 25-Dec-2016
                22-Sep-2023 
 ******************************************
 %nprocshared=2
 Will use up to    2 processors via shared memory.
 %mem=2GB
 ----------------
 # 6-31g(d) wb97x
 ----------------
 1/38=1,172=1/1;
 2/12=2,17=6,18=5,40=1/2;
 3/5=1,6=6,7=1,11=2,25=1,30=1,74=-57/1,2,3;
 4//1;
 5/5=2,38=5/2;
 6/7=2,8=2,9=2,10=2,28=1/1;
 99/5=1,9=1/99;
 --------------------
 tmpdir/M2_ref_49.gjf
 --------------------
 Symbolic Z-matrix:
 Charge =  0 Multiplicity = 1
 C                     9.13883   29.23301   36.62413 
 N                     10.32099   28.85906   35.83312 
 C                     11.0078   27.71651   35.68496 
 H                     8.31965   28.4932   36.7181 
 H                     8.73616   30.15225   36.12293 
 H                     9.46581   29.53373   37.63046 
 H                     10.76191   29.7006   35.47648 
 O                     10.66993   26.61097   36.14557 
 H                     11.9243   27.7806   35.09438 
 
                          Input orientation:                          
 ---------------------------------------------------------------------
 Center     Atomic      Atomic             Coordinates (Angstroms)
 Number     Number       Type             X           Y           Z
 ---------------------------------------------------------------------
      1          6           0        9.138830   29.233013   36.624130
      2          7           0       10.320992   28.859058   35.833119
      3          6           0       11.007796   27.716505   35.684957
      4          1           0        8.319649   28.493204   36.718098
      5          1           0        8.736157   30.152249   36.122931
      6          1           0        9.465810   29.533731   37.630456
      7          1           0       10.761911   29.700605   35.476478
      8          8           0       10.669927   26.610971   36.145570
      9          1           0       11.924296   27.780604   35.094377
 ---------------------------------------------------------------------
                    Distance matrix (angstroms):
                    1          2          3          4          5
     1  C    0.000000
     2  N    1.470730   0.000000
     3  C    2.583578   1.341298   0.000000
     4  H    1.107793   2.218651   2.982747   0.000000
     5  H    1.121758   2.065923   3.359318   1.811114   0.000000
     6  H    1.100018   2.101652   3.076524   1.796880   1.785382
     7  H    2.042092   1.014792   2.010118   2.994008   2.173836
     8  O    3.073822   2.296362   1.244398   3.065028   4.034926
     9  H    3.494061   2.068668   1.092184   4.017183   4.104493
                    6          7          8          9
     6  H    0.000000
     7  H    2.519394   0.000000
     8  O    3.492465   3.162591   0.000000
     9  H    3.943261   2.276740   2.011589   0.000000
 Stoichiometry    C2H5NO
 Framework group  C1[X(C2H5NO)]
 Deg. of freedom    21
 Full point group                 C1      NOp   1
 Largest Abelian subgroup         C1      NOp   1
 Largest concise Abelian subgroup C1      NOp   1
                         Standard orientation:                         
 ---------------------------------------------------------------------
 Center     Atomic      Atomic             Coordinates (Angstroms)
 Number     Number       Type             X           Y           Z
 ---------------------------------------------------------------------
      1          6           0       -1.553393   -0.401909    0.009393
      2          7           0       -0.442966    0.560900   -0.045393
      3          6           0        0.891184    0.434108    0.009799
      4          1           0       -1.423469   -1.376470   -0.501053
      5          1           0       -2.422078    0.133795   -0.456170
      6          1           0       -1.815063   -0.582282    1.062500
      7          1           0       -0.812169    1.500235    0.060165
      8          8           0        1.510782   -0.645010   -0.001517
      9          1           0        1.460543    1.365310    0.049287
 ---------------------------------------------------------------------
 Rotational constants (GHZ):          21.8454244           5.4219194           4.4694587
 Standard basis: 6-31G(d) (6D, 7F)
 There are    70 symmetry adapted cartesian basis functions of A   symmetry.
 There are    70 symmetry adapted basis functions of A   symmetry.
    70 basis functions,   132 primitive gaussians,    70 cartesian basis functions
    16 alpha electrons       16 beta electrons
       nuclear repulsion energy       119.1026744812 Hartrees.
 NAtoms=    9 NActive=    9 NUniq=    9 SFac= 1.00D+00 NAtFMM=   60 NAOKFM=F Big=F
 Integral buffers will be    131072 words long.
 Raffenetti 2 integral format.
 Two-electron integral symmetry is turned on.
 One-electron integrals computed using PRISM.
 NBasis=    70 RedAO= T EigKep=  5.20D-03  NBF=    70
 NBsUse=    70 1.00D-06 EigRej= -1.00D+00 NBFU=    70
 ExpMin= 1.61D-01 ExpMax= 5.48D+03 ExpMxC= 8.25D+02 IAcc=3 IRadAn=         5 AccDes= 0.00D+00
 Harris functional with IExCor= 4538 and IRadAn=       5 diagonalized for initial guess.
 HarFok:  IExCor= 4538 AccDes= 0.00D+00 IRadAn=         5 IDoV= 1 UseB2=F ITyADJ=14
 ICtDFT=  3500011 ScaDFX=  1.000000  1.000000  1.000000  1.000000
 FoFCou: FMM=F IPFlag=           0 FMFlag=      100000 FMFlg1=           0
         NFxFlg=           0 DoJE=T BraDBF=F KetDBF=T FulRan=T
         wScrn=  0.000000 ICntrl=       500 IOpCl=  0 I1Cent=   200000004 NGrid=           0
         NMat0=    1 NMatS0=      1 NMatT0=    0 NMatD0=    1 NMtDS0=    0 NMtDT0=    0
 Petite list used in FoFCou.
 Keep R1 ints in memory in canonical form, NReq=7962857.
 Requested convergence on RMS density matrix=1.00D-08 within 128 cycles.
 Requested convergence on MAX density matrix=1.00D-06.
 Requested convergence on             energy=1.00D-06.
 No special actions if energy rises.
 Integral accuracy reduced to 1.0D-05 until final iterations.
 Initial convergence to 1.0D-05 achieved.  Increase integral accuracy.
 SCF Done:  E(RwB97X) =  -209.132289875     A.U. after   16 cycles
            NFock= 16  Conv=0.65D-08     -V/T= 2.0099

 **********************************************************************

            Population analysis using the SCF density.

 **********************************************************************

 Orbital symmetries:
       Occupied  (A) (A) (A) (A) (A) (A) (A) (A) (A) (A) (A) (A)
                 (A) (A) (A) (A)
       Virtual   (A) (A) (A) (A) (A) (A) (A) (A) (A) (A) (A) (A)
                 (A) (A) (A) (A) (A) (A) (A) (A) (A) (A) (A) (A)
                 (A) (A) (A) (A) (A) (A) (A) (A) (A) (A) (A) (A)
                 (A) (A) (A) (A) (A) (A) (A) (A) (A) (A) (A) (A)
                 (A) (A) (A) (A) (A) (A)
 The electronic state is 1-A.
 Alpha  occ. eigenvalues --  -19.16952 -14.44854 -10.36605 -10.32096  -1.13815
 Alpha  occ. eigenvalues --   -1.04955  -0.85128  -0.70878  -0.66082  -0.56673
 Alpha  occ. eigenvalues --   -0.56478  -0.51807  -0.49089  -0.48031  -0.35026
 Alpha  occ. eigenvalues --   -0.34369
 Alpha virt. eigenvalues --    0.12672   0.16070   0.21455   0.22858   0.25083
 Alpha virt. eigenvalues --    0.26359   0.30522   0.37403   0.47313   0.58910
 Alpha virt. eigenvalues --    0.62005   0.64593   0.69593   0.74239   0.77362
 Alpha virt. eigenvalues --    0.85724   0.88097   0.92556   0.96103   0.97035
 Alpha virt. eigenvalues --    0.98722   1.00098   1.03307   1.06739   1.13797
 Alpha virt. eigenvalues --    1.18177   1.25339   1.35969   1.46118   1.48373
 Alpha virt. eigenvalues --    1.56459   1.63613   1.67864   1.86236   1.95086
 Alpha virt. eigenvalues --    1.97523   2.00095   2.03550   2.12498   2.21641
 Alpha virt. eigenvalues --    2.26330   2.33156   2.39318   2.47289   2.50808
 Alpha virt. eigenvalues --    2.70047   2.78410   2.82342   3.02631   3.21450
 Alpha virt. eigenvalues --    3.91327   4.02134   4.28327   4.43281
          Condensed to atoms (all electrons):
               1          2          3          4          5          6
     1  C    4.968872   0.229263  -0.009578   0.384376   0.385564   0.393219
     2  N    0.229263   7.115248   0.216594  -0.024509  -0.037951  -0.047092
     3  C   -0.009578   0.216594   4.487546  -0.000325   0.003253  -0.001689
     4  H    0.384376  -0.024509  -0.000325   0.474025  -0.021311  -0.028168
     5  H    0.385564  -0.037951   0.003253  -0.021311   0.545156  -0.034543
     6  H    0.393219  -0.047092  -0.001689  -0.028168  -0.034543   0.534820
     7  H   -0.034460   0.310456  -0.013630   0.002944  -0.005322   0.000694
     8  O    0.007339  -0.094858   0.599499   0.002207   0.000110   0.000388
     9  H    0.004801  -0.115476   0.389956   0.000069  -0.000054  -0.000116
               7          8          9
     1  C   -0.034460   0.007339   0.004801
     2  N    0.310456  -0.094858  -0.115476
     3  C   -0.013630   0.599499   0.389956
     4  H    0.002944   0.002207   0.000069
     5  H   -0.005322   0.000110  -0.000054
     6  H    0.000694   0.000388  -0.000116
     7  H    0.395466   0.002818   0.002269
     8  O    0.002818   8.013700  -0.055163
     9  H    0.002269  -0.055163   0.642021
 Mulliken charges:
               1
     1  C   -0.329395
     2  N   -0.551673
     3  C    0.328374
     4  H    0.210692
     5  H    0.165097
     6  H    0.182487
     7  H    0.338765
     8  O   -0.476041
     9  H    0.131694
 Sum of Mulliken charges =  -0.00000
 Mulliken charges with hydrogens summed into heavy atoms:
               1
     1  C    0.228881
     2  N   -0.212909
     3  C    0.460068
     8  O   -0.476041
 Electronic spatial extent (au):  <R**2>=            297.7836
 Charge=             -0.0000 electrons
 Dipole moment (field-independent basis, Debye):
    X=             -3.4819    Y=              2.6756    Z=              0.2257  Tot=              4.3970
 Quadrupole moment (field-independent basis, Debye-Ang):
   XX=            -25.2362   YY=            -21.8605   ZZ=            -24.5902
   XY=              3.0307   XZ=             -0.0354   YZ=              0.4523
 Traceless Quadrupole moment (field-independent basis, Debye-Ang):
   XX=             -1.3406   YY=              2.0351   ZZ=             -0.6946
   XY=              3.0307   XZ=             -0.0354   YZ=              0.4523
 Octapole moment (field-independent basis, Debye-Ang**2):
  XXX=             -7.8966  YYY=              4.1862  ZZZ=              0.8692  XYY=             -2.4949
  XXY=              5.6639  XXZ=             -0.2706  XZZ=              0.9539  YZZ=             -0.9583
  YYZ=             -0.2428  XYZ=             -0.1414
 Hexadecapole moment (field-independent basis, Debye-Ang**3):
 XXXX=           -266.7907 YYYY=            -71.9544 ZZZZ=            -28.4364 XXXY=              2.9614
 XXXZ=              1.4791 YYYX=             -3.4241 YYYZ=              1.9882 ZZZX=             -1.3938
 ZZZY=             -0.0073 XXYY=            -53.8792 XXZZ=            -47.3818 YYZZ=            -18.5024
 XXYZ=             -0.2400 YYXZ=              0.6462 ZZXY=             -0.5282
 N-N= 1.191026744812D+02 E-N=-7.264537251651D+02  KE= 2.070746251694D+02
 1\1\GINC-NODE67\SP\RwB97X\6-31G(d)\C2H5N1O1\YANZ\22-Sep-2023\0\\# 6-31
 g(d) wb97x\\tmpdir/M2_ref_49.gjf\\0,1\C,0,9.13883,29.233013,36.62413\N
 ,0,10.320992,28.859058,35.833119\C,0,11.007796,27.716505,35.684957\H,0
 ,8.31964875,28.49320368,36.71809837\H,0,8.73615683,30.15224905,36.1229
 3088\H,0,9.46581,29.533731,37.630456\H,0,10.761911,29.700605,35.476478
 \O,0,10.669927,26.610971,36.14557\H,0,11.92429648,27.78060366,35.09437
 678\\Version=ES64L-G16RevA.03\State=1-A\HF=-209.1322899\RMSD=6.548e-09
 \Dipole=-0.049184,1.7131119,-0.2354741\Quadrupole=1.8928688,-2.1631096
 ,0.2702408,0.6225362,-1.5402495,0.1958331\PG=C01 [X(C2H5N1O1)]\\@


 LIFE CAN ONLY BE UNDERSTOOD BACKWARD, BUT MUST
 BE LIVED FORWARD. -- KIRKEGAARD
 Job cpu time:       0 days  0 hours  0 minutes 23.0 seconds.
 Elapsed time:       0 days  0 hours  0 minutes 11.5 seconds.
 File lengths (MBytes):  RWF=      6 Int=      0 D2E=      0 Chk=      1 Scr=      1
 Normal termination of Gaussian 16 at Fri Sep 22 16:29:34 2023.
