 Entering Gaussian System, Link 0=g16
 Initial command:
 /share/apps/gaussian/g16/l1.exe "/tmp/55568.mgr/Gau-352735.inp" -scrdir="/tmp/55568.mgr/"
 Entering Link 1 = /share/apps/gaussian/g16/l1.exe PID=    352743.
  
 Copyright (c) 1988,1990,1992,1993,1995,1998,2003,2009,2016,
            Gaussian, Inc.  All Rights Reserved.
  
 This is part of the Gaussian(R) 16 program.  It is based on
 the Gaussian(R) 09 system (copyright 2009, Gaussian, Inc.),
 the Gaussian(R) 03 system (copyright 2003, Gaussian, Inc.),
 the Gaussian(R) 98 system (copyright 1998, Gaussian, Inc.),
 the Gaussian(R) 94 system (copyright 1995, Gaussian, Inc.),
 the Gaussian 92(TM) system (copyright 1992, Gaussian, Inc.),
 the Gaussian 90(TM) system (copyright 1990, Gaussian, Inc.),
 the Gaussian 88(TM) system (copyright 1988, Gaussian, Inc.),
 the Gaussian 86(TM) system (copyright 1986, Carnegie Mellon
 University), and the Gaussian 82(TM) system (copyright 1983,
 Carnegie Mellon University). Gaussian is a federally registered
 trademark of Gaussian, Inc.
  
 This software contains proprietary and confidential information,
 including trade secrets, belonging to Gaussian, Inc.
  
 This software is provided under written license and may be
 used, copied, transmitted, or stored only in accord with that
 written license.
  
 The following legend is applicable only to US Government
 contracts under FAR:
  
                    RESTRICTED RIGHTS LEGEND
  
 Use, reproduction and disclosure by the US Government is
 subject to restrictions as set forth in subparagraphs (a)
 and (c) of the Commercial Computer Software - Restricted
 Rights clause in FAR 52.227-19.
  
 Gaussian, Inc.
 340 Quinnipiac St., Bldg. 40, Wallingford CT 06492
  
  
 ---------------------------------------------------------------
 Warning -- This program may not be used in any manner that
 competes with the business of Gaussian, Inc. or will provide
 assistance to any competitor of Gaussian, Inc.  The licensee
 of this program is prohibited from giving any competitor of
 Gaussian, Inc. access to this program.  By using this program,
 the user acknowledges that Gaussian, Inc. is engaged in the
 business of creating and licensing software in the field of
 computational chemistry and represents and warrants to the
 licensee that it is not a competitor of Gaussian, Inc. and that
 it will not use this program in any manner prohibited above.
 ---------------------------------------------------------------
  

 Cite this work as:
 Gaussian 16, Revision A.03,
 M. J. Frisch, G. W. Trucks, H. B. Schlegel, G. E. Scuseria, 
 M. A. Robb, J. R. Cheeseman, G. Scalmani, V. Barone, 
 G. A. Petersson, H. Nakatsuji, X. Li, M. Caricato, A. V. Marenich, 
 J. Bloino, B. G. Janesko, R. Gomperts, B. Mennucci, H. P. Hratchian, 
 J. V. Ortiz, A. F. Izmaylov, J. L. Sonnenberg, D. Williams-Young, 
 F. Ding, F. Lipparini, F. Egidi, J. Goings, B. Peng, A. Petrone, 
 T. Henderson, D. Ranasinghe, V. G. Zakrzewski, J. Gao, N. Rega, 
 G. Zheng, W. Liang, M. Hada, M. Ehara, K. Toyota, R. Fukuda, 
 J. Hasegawa, M. Ishida, T. Nakajima, Y. Honda, O. Kitao, H. Nakai, 
 T. Vreven, K. Throssell, J. A. Montgomery, Jr., J. E. Peralta, 
 F. Ogliaro, M. J. Bearpark, J. J. Heyd, E. N. Brothers, K. N. Kudin, 
 V. N. Staroverov, T. A. Keith, R. Kobayashi, J. Normand, 
 K. Raghavachari, A. P. Rendell, J. C. Burant, S. S. Iyengar, 
 J. Tomasi, M. Cossi, J. M. Millam, M. Klene, C. Adamo, R. Cammi, 
 J. W. Ochterski, R. L. Martin, K. Morokuma, O. Farkas, 
 J. B. Foresman, and D. J. Fox, Gaussian, Inc., Wallingford CT, 2016.
 
 ******************************************
 Gaussian 16:  ES64L-G16RevA.03 25-Dec-2016
                22-Sep-2023 
 ******************************************
 %nprocshared=2
 Will use up to    2 processors via shared memory.
 %mem=2GB
 ----------------
 # 6-31g(d) wb97x
 ----------------
 1/38=1,172=1/1;
 2/12=2,17=6,18=5,40=1/2;
 3/5=1,6=6,7=1,11=2,25=1,30=1,74=-57/1,2,3;
 4//1;
 5/5=2,38=5/2;
 6/7=2,8=2,9=2,10=2,28=1/1;
 99/5=1,9=1/99;
 -------------------
 tmpdir/M2_ref_9.gjf
 -------------------
 Symbolic Z-matrix:
 Charge =  0 Multiplicity = 1
 C                     5.22018   30.7165   37.97411 
 C                     6.5308    30.2011   37.31476 
 C                     7.329     30.98657   36.59869 
 O                     4.62023   29.82145   38.61068 
 H                     5.01322   31.70134   37.81468 
 H                     6.76041   29.15855   37.50799 
 H                     8.23644   30.63643   36.11591 
 H                     7.01408   32.01936   36.47357 
 
                          Input orientation:                          
 ---------------------------------------------------------------------
 Center     Atomic      Atomic             Coordinates (Angstroms)
 Number     Number       Type             X           Y           Z
 ---------------------------------------------------------------------
      1          6           0        5.220175   30.716497   37.974112
      2          6           0        6.530805   30.201104   37.314760
      3          6           0        7.329002   30.986570   36.598694
      4          8           0        4.620231   29.821450   38.610678
      5          1           0        5.013218   31.701335   37.814680
      6          1           0        6.760409   29.158550   37.507986
      7          1           0        8.236438   30.636431   36.115908
      8          1           0        7.014081   32.019358   36.473568
 ---------------------------------------------------------------------
                    Distance matrix (angstroms):
                    1          2          3          4          5
     1  C    0.000000
     2  C    1.555032   0.000000
     3  C    2.532166   1.329220   0.000000
     4  O    1.251502   2.339623   3.569737   0.000000
     5  H    1.018900   2.191731   2.711525   2.078947   0.000000
     6  H    2.239820   1.084884   2.119379   2.497144   3.100403
     7  H    3.543611   2.129775   1.085873   4.468224   3.795919
     8  H    2.677159   2.060875   1.086960   3.889545   2.429645
                    6          7          8
     6  H    0.000000
     7  H    2.510115   0.000000
     8  H    3.052637   1.880044   0.000000
 Stoichiometry    C3H4O
 Framework group  C1[X(C3H4O)]
 Deg. of freedom    18
 Full point group                 C1      NOp   1
 Largest Abelian subgroup         C1      NOp   1
 Largest concise Abelian subgroup C1      NOp   1
                         Standard orientation:                         
 ---------------------------------------------------------------------
 Center     Atomic      Atomic             Coordinates (Angstroms)
 Number     Number       Type             X           Y           Z
 ---------------------------------------------------------------------
      1          6           0        0.717384    0.473348    0.000251
      2          6           0       -0.560353   -0.412937    0.003771
      3          6           0       -1.786966    0.099088   -0.005036
      4          8           0        1.769898   -0.203758    0.000673
      5          1           0        0.547757    1.478015   -0.005112
      6          1           0       -0.375372   -1.481751   -0.016075
      7          1           0       -2.688029   -0.506470    0.017425
      8          1           0       -1.863926    1.183278    0.004465
 ---------------------------------------------------------------------
 Rotational constants (GHZ):          43.5982146           4.6253549           4.1817880
 Standard basis: 6-31G(d) (6D, 7F)
 There are    68 symmetry adapted cartesian basis functions of A   symmetry.
 There are    68 symmetry adapted basis functions of A   symmetry.
    68 basis functions,   128 primitive gaussians,    68 cartesian basis functions
    15 alpha electrons       15 beta electrons
       nuclear repulsion energy       101.8718645932 Hartrees.
 NAtoms=    8 NActive=    8 NUniq=    8 SFac= 1.00D+00 NAtFMM=   60 NAOKFM=F Big=F
 Integral buffers will be    131072 words long.
 Raffenetti 2 integral format.
 Two-electron integral symmetry is turned on.
 One-electron integrals computed using PRISM.
 NBasis=    68 RedAO= T EigKep=  4.14D-03  NBF=    68
 NBsUse=    68 1.00D-06 EigRej= -1.00D+00 NBFU=    68
 ExpMin= 1.61D-01 ExpMax= 5.48D+03 ExpMxC= 8.25D+02 IAcc=3 IRadAn=         5 AccDes= 0.00D+00
 Harris functional with IExCor= 4538 and IRadAn=       5 diagonalized for initial guess.
 HarFok:  IExCor= 4538 AccDes= 0.00D+00 IRadAn=         5 IDoV= 1 UseB2=F ITyADJ=14
 ICtDFT=  3500011 ScaDFX=  1.000000  1.000000  1.000000  1.000000
 FoFCou: FMM=F IPFlag=           0 FMFlag=      100000 FMFlg1=           0
         NFxFlg=           0 DoJE=T BraDBF=F KetDBF=T FulRan=T
         wScrn=  0.000000 ICntrl=       500 IOpCl=  0 I1Cent=   200000004 NGrid=           0
         NMat0=    1 NMatS0=      1 NMatT0=    0 NMatD0=    1 NMtDS0=    0 NMtDT0=    0
 Petite list used in FoFCou.
 Keep R1 ints in memory in canonical form, NReq=7290824.
 Requested convergence on RMS density matrix=1.00D-08 within 128 cycles.
 Requested convergence on MAX density matrix=1.00D-06.
 Requested convergence on             energy=1.00D-06.
 No special actions if energy rises.
 Integral accuracy reduced to 1.0D-05 until final iterations.
 Initial convergence to 1.0D-05 achieved.  Increase integral accuracy.
 SCF Done:  E(RwB97X) =  -191.835796206     A.U. after   15 cycles
            NFock= 15  Conv=0.73D-08     -V/T= 2.0096

 **********************************************************************

            Population analysis using the SCF density.

 **********************************************************************

 Orbital symmetries:
       Occupied  (A) (A) (A) (A) (A) (A) (A) (A) (A) (A) (A) (A)
                 (A) (A) (A)
       Virtual   (A) (A) (A) (A) (A) (A) (A) (A) (A) (A) (A) (A)
                 (A) (A) (A) (A) (A) (A) (A) (A) (A) (A) (A) (A)
                 (A) (A) (A) (A) (A) (A) (A) (A) (A) (A) (A) (A)
                 (A) (A) (A) (A) (A) (A) (A) (A) (A) (A) (A) (A)
                 (A) (A) (A) (A) (A)
 The electronic state is 1-A.
 Alpha  occ. eigenvalues --  -19.22296 -10.37146 -10.29289 -10.28828  -1.15511
 Alpha  occ. eigenvalues --   -0.92058  -0.77204  -0.70345  -0.58989  -0.57896
 Alpha  occ. eigenvalues --   -0.52941  -0.49809  -0.48564  -0.38264  -0.36102
 Alpha virt. eigenvalues --    0.02766   0.14453   0.19865   0.22265   0.25218
 Alpha virt. eigenvalues --    0.28703   0.33830   0.41769   0.43598   0.60682
 Alpha virt. eigenvalues --    0.61411   0.66900   0.69013   0.71868   0.74412
 Alpha virt. eigenvalues --    0.75190   0.78591   0.92411   0.95334   0.97590
 Alpha virt. eigenvalues --    0.99313   1.01904   1.07391   1.08890   1.14920
 Alpha virt. eigenvalues --    1.21952   1.25022   1.40706   1.44325   1.55134
 Alpha virt. eigenvalues --    1.59482   1.62693   1.76222   1.85673   1.91487
 Alpha virt. eigenvalues --    1.94523   2.02782   2.07217   2.18402   2.22280
 Alpha virt. eigenvalues --    2.27365   2.34191   2.49820   2.51152   2.62380
 Alpha virt. eigenvalues --    2.74195   2.91169   3.03013   3.06396   3.90278
 Alpha virt. eigenvalues --    4.17230   4.27800   4.49000
          Condensed to atoms (all electrons):
               1          2          3          4          5          6
     1  C    4.598595   0.393800  -0.030901   0.494931   0.352806  -0.028702
     2  C    0.393800   5.092841   0.531653  -0.073094  -0.097754   0.379266
     3  C   -0.030901   0.531653   5.118071   0.005707   0.012267  -0.040720
     4  O    0.494931  -0.073094   0.005707   8.014199  -0.032523   0.001415
     5  H    0.352806  -0.097754   0.012267  -0.032523   0.588581   0.003681
     6  H   -0.028702   0.379266  -0.040720   0.001415   0.003681   0.500735
     7  H    0.002227  -0.018544   0.374194  -0.000075  -0.000251  -0.003752
     8  H   -0.007547  -0.048383   0.385723   0.000110   0.006071   0.004088
               7          8
     1  C    0.002227  -0.007547
     2  C   -0.018544  -0.048383
     3  C    0.374194   0.385723
     4  O   -0.000075   0.000110
     5  H   -0.000251   0.006071
     6  H   -0.003752   0.004088
     7  H    0.487013  -0.028005
     8  H   -0.028005   0.524586
 Mulliken charges:
               1
     1  C    0.224791
     2  C   -0.159784
     3  C   -0.355994
     4  O   -0.410671
     5  H    0.167121
     6  H    0.183989
     7  H    0.187191
     8  H    0.163357
 Sum of Mulliken charges =  -0.00000
 Mulliken charges with hydrogens summed into heavy atoms:
               1
     1  C    0.391912
     2  C    0.024205
     3  C   -0.005445
     4  O   -0.410671
 Electronic spatial extent (au):  <R**2>=            300.3187
 Charge=             -0.0000 electrons
 Dipole moment (field-independent basis, Debye):
    X=             -2.6720    Y=              1.2035    Z=              0.0051  Tot=              2.9306
 Quadrupole moment (field-independent basis, Debye-Ang):
   XX=            -26.6423   YY=            -20.7438   ZZ=            -24.5151
   XY=              1.4927   XZ=             -0.0531   YZ=              0.0181
 Traceless Quadrupole moment (field-independent basis, Debye-Ang):
   XX=             -2.6752   YY=              3.2232   ZZ=             -0.5481
   XY=              1.4927   XZ=             -0.0531   YZ=              0.0181
 Octapole moment (field-independent basis, Debye-Ang**2):
  XXX=            -11.1560  YYY=              0.5963  ZZZ=              0.0124  XYY=              1.0708
  XXY=              0.1666  XXZ=              0.1540  XZZ=              4.6127  YZZ=              0.1740
  YYZ=             -0.0333  XYZ=              0.0120
 Hexadecapole moment (field-independent basis, Debye-Ang**3):
 XXXX=           -296.2663 YYYY=            -53.2012 ZZZZ=            -22.9861 XXXY=              5.1637
 XXXZ=             -0.4695 YYYX=             -0.3449 YYYZ=              0.0772 ZZZX=             -0.0436
 ZZZY=              0.0119 XXYY=            -56.4766 XXZZ=            -55.1855 YYZZ=            -14.2027
 XXYZ=             -0.0559 YYXZ=             -0.0374 ZZXY=             -0.4380
 N-N= 1.018718645932D+02 E-N=-6.509799231952D+02  KE= 1.900184495588D+02
 1\1\GINC-NODE67\SP\RwB97X\6-31G(d)\C3H4O1\YANZ\22-Sep-2023\0\\# 6-31g(
 d) wb97x\\tmpdir/M2_ref_9.gjf\\0,1\C,0,5.220175,30.716497,37.974112\C,
 0,6.530805,30.201104,37.31476\C,0,7.329002,30.98657,36.598694\O,0,4.62
 0231,29.82145,38.610678\H,0,5.01321762,31.70133534,37.81468013\H,0,6.7
 6040861,29.15854963,37.50798617\H,0,8.23643798,30.63643069,36.11590764
 \H,0,7.014081,32.019358,36.473568\\Version=ES64L-G16RevA.03\State=1-A\
 HF=-191.8357962\RMSD=7.322e-09\Dipole=0.6673549,0.7033325,-0.6239403\Q
 uadrupole=-0.4933854,1.4328438,-0.9394584,-1.9534369,0.6032287,0.62960
 06\PG=C01 [X(C3H4O1)]\\@


 GOOD SENSE ABOUT TRIVIALITIES IS BETTER THAN NONSENSE
 ABOUT THINGS THAT MATTER

                                       -- MAX BEERBOHM
 Job cpu time:       0 days  0 hours  0 minutes 19.2 seconds.
 Elapsed time:       0 days  0 hours  0 minutes  9.7 seconds.
 File lengths (MBytes):  RWF=      6 Int=      0 D2E=      0 Chk=      1 Scr=      1
 Normal termination of Gaussian 16 at Fri Sep 22 16:29:14 2023.
