 Entering Gaussian System, Link 0=g16
 Initial command:
 /share/apps/gaussian/g16/l1.exe "/tmp/55568.mgr/Gau-353504.inp" -scrdir="/tmp/55568.mgr/"
 Entering Link 1 = /share/apps/gaussian/g16/l1.exe PID=    353505.
  
 Copyright (c) 1988,1990,1992,1993,1995,1998,2003,2009,2016,
            Gaussian, Inc.  All Rights Reserved.
  
 This is part of the Gaussian(R) 16 program.  It is based on
 the Gaussian(R) 09 system (copyright 2009, Gaussian, Inc.),
 the Gaussian(R) 03 system (copyright 2003, Gaussian, Inc.),
 the Gaussian(R) 98 system (copyright 1998, Gaussian, Inc.),
 the Gaussian(R) 94 system (copyright 1995, Gaussian, Inc.),
 the Gaussian 92(TM) system (copyright 1992, Gaussian, Inc.),
 the Gaussian 90(TM) system (copyright 1990, Gaussian, Inc.),
 the Gaussian 88(TM) system (copyright 1988, Gaussian, Inc.),
 the Gaussian 86(TM) system (copyright 1986, Carnegie Mellon
 University), and the Gaussian 82(TM) system (copyright 1983,
 Carnegie Mellon University). Gaussian is a federally registered
 trademark of Gaussian, Inc.
  
 This software contains proprietary and confidential information,
 including trade secrets, belonging to Gaussian, Inc.
  
 This software is provided under written license and may be
 used, copied, transmitted, or stored only in accord with that
 written license.
  
 The following legend is applicable only to US Government
 contracts under FAR:
  
                    RESTRICTED RIGHTS LEGEND
  
 Use, reproduction and disclosure by the US Government is
 subject to restrictions as set forth in subparagraphs (a)
 and (c) of the Commercial Computer Software - Restricted
 Rights clause in FAR 52.227-19.
  
 Gaussian, Inc.
 340 Quinnipiac St., Bldg. 40, Wallingford CT 06492
  
  
 ---------------------------------------------------------------
 Warning -- This program may not be used in any manner that
 competes with the business of Gaussian, Inc. or will provide
 assistance to any competitor of Gaussian, Inc.  The licensee
 of this program is prohibited from giving any competitor of
 Gaussian, Inc. access to this program.  By using this program,
 the user acknowledges that Gaussian, Inc. is engaged in the
 business of creating and licensing software in the field of
 computational chemistry and represents and warrants to the
 licensee that it is not a competitor of Gaussian, Inc. and that
 it will not use this program in any manner prohibited above.
 ---------------------------------------------------------------
  

 Cite this work as:
 Gaussian 16, Revision A.03,
 M. J. Frisch, G. W. Trucks, H. B. Schlegel, G. E. Scuseria, 
 M. A. Robb, J. R. Cheeseman, G. Scalmani, V. Barone, 
 G. A. Petersson, H. Nakatsuji, X. Li, M. Caricato, A. V. Marenich, 
 J. Bloino, B. G. Janesko, R. Gomperts, B. Mennucci, H. P. Hratchian, 
 J. V. Ortiz, A. F. Izmaylov, J. L. Sonnenberg, D. Williams-Young, 
 F. Ding, F. Lipparini, F. Egidi, J. Goings, B. Peng, A. Petrone, 
 T. Henderson, D. Ranasinghe, V. G. Zakrzewski, J. Gao, N. Rega, 
 G. Zheng, W. Liang, M. Hada, M. Ehara, K. Toyota, R. Fukuda, 
 J. Hasegawa, M. Ishida, T. Nakajima, Y. Honda, O. Kitao, H. Nakai, 
 T. Vreven, K. Throssell, J. A. Montgomery, Jr., J. E. Peralta, 
 F. Ogliaro, M. J. Bearpark, J. J. Heyd, E. N. Brothers, K. N. Kudin, 
 V. N. Staroverov, T. A. Keith, R. Kobayashi, J. Normand, 
 K. Raghavachari, A. P. Rendell, J. C. Burant, S. S. Iyengar, 
 J. Tomasi, M. Cossi, J. M. Millam, M. Klene, C. Adamo, R. Cammi, 
 J. W. Ochterski, R. L. Martin, K. Morokuma, O. Farkas, 
 J. B. Foresman, and D. J. Fox, Gaussian, Inc., Wallingford CT, 2016.
 
 ******************************************
 Gaussian 16:  ES64L-G16RevA.03 25-Dec-2016
                22-Sep-2023 
 ******************************************
 %nprocshared=2
 Will use up to    2 processors via shared memory.
 %mem=2GB
 ----------------
 # 6-31g(d) wb97x
 ----------------
 1/38=1,172=1/1;
 2/12=2,17=6,18=5,40=1/2;
 3/5=1,6=6,7=1,11=2,25=1,30=1,74=-57/1,2,3;
 4//1;
 5/5=2,38=5/2;
 6/7=2,8=2,9=2,10=2,28=1/1;
 99/5=1,9=1/99;
 --------------------
 tmpdir/M2_ref_70.gjf
 --------------------
 Symbolic Z-matrix:
 Charge =  0 Multiplicity = 1
 O                     9.66123   31.431    35.94876 
 C                     9.79769   32.27465   34.79924 
 C                     8.69479   33.33164   34.69748 
 H                     8.92039   30.79356   35.93708 
 H                     10.81026   32.71239   34.85388 
 H                     9.74144   31.63216   33.9002 
 H                     8.64116   34.01961   35.56134 
 H                     7.731     32.82662   34.56492 
 H                     8.86706   33.89626   33.77136 
 
                          Input orientation:                          
 ---------------------------------------------------------------------
 Center     Atomic      Atomic             Coordinates (Angstroms)
 Number     Number       Type             X           Y           Z
 ---------------------------------------------------------------------
      1          8           0        9.661228   31.431000   35.948758
      2          6           0        9.797688   32.274648   34.799237
      3          6           0        8.694786   33.331639   34.697477
      4          1           0        8.920392   30.793556   35.937082
      5          1           0       10.810260   32.712393   34.853880
      6          1           0        9.741440   31.632164   33.900198
      7          1           0        8.641159   34.019610   35.561340
      8          1           0        7.730997   32.826618   34.564923
      9          1           0        8.867058   33.896258   33.771357
 ---------------------------------------------------------------------
                    Distance matrix (angstroms):
                    1          2          3          4          5
     1  O    0.000000
     2  C    1.432397   0.000000
     3  C    2.472275   1.531006   0.000000
     4  H    0.977399   2.063485   2.833616   0.000000
     5  H    2.039853   1.104495   2.209787   2.902906   0.000000
     6  H    2.059975   1.106445   2.149268   2.350804   1.794096
     7  H    2.809188   2.227836   1.105640   3.259843   2.629509
     8  H    2.754731   2.151926   1.096132   2.725953   3.094900
     9  H    3.383678   2.133595   1.098258   3.784173   2.519807
                    6          7          8          9
     6  H    0.000000
     7  H    3.109648   0.000000
     8  H    2.431144   1.801242   0.000000
     9  H    2.430487   1.808393   1.750575   0.000000
 Stoichiometry    C2H6O
 Framework group  C1[X(C2H6O)]
 Deg. of freedom    21
 Full point group                 C1      NOp   1
 Largest Abelian subgroup         C1      NOp   1
 Largest concise Abelian subgroup C1      NOp   1
                         Standard orientation:                         
 ---------------------------------------------------------------------
 Center     Atomic      Atomic             Coordinates (Angstroms)
 Number     Number       Type             X           Y           Z
 ---------------------------------------------------------------------
      1          8           0       -1.241207   -0.255509   -0.118100
      2          6           0       -0.070031    0.555140    0.033417
      3          6           0        1.229325   -0.252450   -0.025330
      4          1           0       -1.463193   -0.845893    0.628545
      5          1           0       -0.128698    1.334328   -0.747181
      6          1           0       -0.124747    1.045876    1.023571
      7          1           0        1.378166   -0.809152   -0.968923
      8          1           0        1.253972   -0.946429    0.822781
      9          1           0        2.058390    0.449202    0.137480
 ---------------------------------------------------------------------
 Rotational constants (GHZ):          34.2401176           8.9476385           7.9545760
 Standard basis: 6-31G(d) (6D, 7F)
 There are    57 symmetry adapted cartesian basis functions of A   symmetry.
 There are    57 symmetry adapted basis functions of A   symmetry.
    57 basis functions,   108 primitive gaussians,    57 cartesian basis functions
    13 alpha electrons       13 beta electrons
       nuclear repulsion energy        80.8474733279 Hartrees.
 NAtoms=    9 NActive=    9 NUniq=    9 SFac= 1.00D+00 NAtFMM=   60 NAOKFM=F Big=F
 Integral buffers will be    131072 words long.
 Raffenetti 2 integral format.
 Two-electron integral symmetry is turned on.
 One-electron integrals computed using PRISM.
 NBasis=    57 RedAO= T EigKep=  6.19D-03  NBF=    57
 NBsUse=    57 1.00D-06 EigRej= -1.00D+00 NBFU=    57
 ExpMin= 1.61D-01 ExpMax= 5.48D+03 ExpMxC= 8.25D+02 IAcc=3 IRadAn=         5 AccDes= 0.00D+00
 Harris functional with IExCor= 4538 and IRadAn=       5 diagonalized for initial guess.
 HarFok:  IExCor= 4538 AccDes= 0.00D+00 IRadAn=         5 IDoV= 1 UseB2=F ITyADJ=14
 ICtDFT=  3500011 ScaDFX=  1.000000  1.000000  1.000000  1.000000
 FoFCou: FMM=F IPFlag=           0 FMFlag=      100000 FMFlg1=           0
         NFxFlg=           0 DoJE=T BraDBF=F KetDBF=T FulRan=T
         wScrn=  0.000000 ICntrl=       500 IOpCl=  0 I1Cent=   200000004 NGrid=           0
         NMat0=    1 NMatS0=      1 NMatT0=    0 NMatD0=    1 NMtDS0=    0 NMtDT0=    0
 Petite list used in FoFCou.
 Keep R1 ints in memory in canonical form, NReq=4494208.
 Requested convergence on RMS density matrix=1.00D-08 within 128 cycles.
 Requested convergence on MAX density matrix=1.00D-06.
 Requested convergence on             energy=1.00D-06.
 No special actions if energy rises.
 Integral accuracy reduced to 1.0D-05 until final iterations.
 Initial convergence to 1.0D-05 achieved.  Increase integral accuracy.
 SCF Done:  E(RwB97X) =  -154.985527663     A.U. after   13 cycles
            NFock= 13  Conv=0.28D-08     -V/T= 2.0099

 **********************************************************************

            Population analysis using the SCF density.

 **********************************************************************

 Orbital symmetries:
       Occupied  (A) (A) (A) (A) (A) (A) (A) (A) (A) (A) (A) (A)
                 (A)
       Virtual   (A) (A) (A) (A) (A) (A) (A) (A) (A) (A) (A) (A)
                 (A) (A) (A) (A) (A) (A) (A) (A) (A) (A) (A) (A)
                 (A) (A) (A) (A) (A) (A) (A) (A) (A) (A) (A) (A)
                 (A) (A) (A) (A) (A) (A) (A) (A)
 The electronic state is 1-A.
 Alpha  occ. eigenvalues --  -19.19894 -10.31525 -10.26026  -1.12273  -0.87128
 Alpha  occ. eigenvalues --   -0.74028  -0.60821  -0.56028  -0.52322  -0.48797
 Alpha  occ. eigenvalues --   -0.46736  -0.40989  -0.36173
 Alpha virt. eigenvalues --    0.17419   0.21590   0.24452   0.25554   0.26747
 Alpha virt. eigenvalues --    0.29038   0.32290   0.34327   0.63670   0.65443
 Alpha virt. eigenvalues --    0.67798   0.68491   0.76597   0.78955   0.92035
 Alpha virt. eigenvalues --    0.97544   0.99117   1.01162   1.01962   1.06340
 Alpha virt. eigenvalues --    1.09980   1.13324   1.13829   1.28689   1.44844
 Alpha virt. eigenvalues --    1.55045   1.66051   1.69062   1.86194   1.91124
 Alpha virt. eigenvalues --    2.01212   2.05011   2.18816   2.22324   2.33589
 Alpha virt. eigenvalues --    2.38421   2.43902   2.52196   2.65194   2.74327
 Alpha virt. eigenvalues --    2.93058   3.84719   4.29497   4.51955
          Condensed to atoms (all electrons):
               1          2          3          4          5          6
     1  O    8.266840   0.255723  -0.051807   0.244794  -0.037016  -0.037189
     2  C    0.255723   4.760833   0.350560  -0.021699   0.395578   0.381712
     3  C   -0.051807   0.350560   5.168682  -0.002095  -0.043565  -0.052603
     4  H    0.244794  -0.021699  -0.002095   0.378857   0.005294  -0.006283
     5  H   -0.037016   0.395578  -0.043565   0.005294   0.551702  -0.036963
     6  H   -0.037189   0.381712  -0.052603  -0.006283  -0.036963   0.621439
     7  H    0.001604  -0.026184   0.380299  -0.000401  -0.003732   0.004536
     8  H   -0.000633  -0.031804   0.378821   0.002863   0.004281  -0.006154
     9  H    0.003390  -0.026865   0.354063  -0.000079  -0.000114   0.001127
               7          8          9
     1  O    0.001604  -0.000633   0.003390
     2  C   -0.026184  -0.031804  -0.026865
     3  C    0.380299   0.378821   0.354063
     4  H   -0.000401   0.002863  -0.000079
     5  H   -0.003732   0.004281  -0.000114
     6  H    0.004536  -0.006154   0.001127
     7  H    0.520744  -0.026936  -0.021925
     8  H   -0.026936   0.558972  -0.028221
     9  H   -0.021925  -0.028221   0.567170
 Mulliken charges:
               1
     1  O   -0.645707
     2  C   -0.037856
     3  C   -0.482355
     4  H    0.398748
     5  H    0.164534
     6  H    0.130376
     7  H    0.171994
     8  H    0.148811
     9  H    0.151454
 Sum of Mulliken charges =   0.00000
 Mulliken charges with hydrogens summed into heavy atoms:
               1
     1  O   -0.246959
     2  C    0.257055
     3  C   -0.010096
 Electronic spatial extent (au):  <R**2>=            197.6297
 Charge=              0.0000 electrons
 Dipole moment (field-independent basis, Debye):
    X=              0.9072    Y=             -0.1404    Z=              1.3817  Tot=              1.6588
 Quadrupole moment (field-independent basis, Debye-Ang):
   XX=            -21.2220   YY=            -18.4860   ZZ=            -18.8183
   XY=              1.2751   XZ=             -2.3153   YZ=             -1.4371
 Traceless Quadrupole moment (field-independent basis, Debye-Ang):
   XX=             -1.7132   YY=              1.0228   ZZ=              0.6904
   XY=              1.2751   XZ=             -2.3153   YZ=             -1.4371
 Octapole moment (field-independent basis, Debye-Ang**2):
  XXX=             -4.7267  YYY=             -1.8272  ZZZ=              0.5733  XYY=             -3.4118
  XXY=             -2.4608  XXZ=              3.4378  XZZ=             -2.5597  YZZ=             -1.0958
  YYZ=              0.6382  XYZ=              2.1885
 Hexadecapole moment (field-independent basis, Debye-Ang**3):
 XXXX=           -161.5993 YYYY=            -54.0052 ZZZZ=            -33.1225 XXXY=              8.9250
 XXXZ=             -5.3622 YYYX=              4.1421 YYYZ=             -2.4858 ZZZX=             -2.0263
 ZZZY=             -1.0133 XXYY=            -32.6237 XXZZ=            -30.9713 YYZZ=            -12.9326
 XXYZ=             -2.3642 YYXZ=             -1.6403 ZZXY=              0.5995
 N-N= 8.084747332788D+01 E-N=-5.234242609071D+02  KE= 1.534665801125D+02
 1\1\GINC-NODE67\SP\RwB97X\6-31G(d)\C2H6O1\YANZ\22-Sep-2023\0\\# 6-31g(
 d) wb97x\\tmpdir/M2_ref_70.gjf\\0,1\O,0,9.661228,31.431,35.948758\C,0,
 9.797688,32.274648,34.799237\C,0,8.694786,33.331639,34.697477\H,0,8.92
 039186,30.79355608,35.93708156\H,0,10.81026046,32.71239272,34.85388026
 \H,0,9.74144,31.632164,33.900198\H,0,8.64115908,34.01961012,35.5613401
 1\H,0,7.730997,32.826618,34.564923\H,0,8.867058,33.896258,33.771357\\V
 ersion=ES64L-G16RevA.03\State=1-A\HF=-154.9855277\RMSD=2.777e-09\Dipol
 e=-0.4347233,-0.0494703,-0.4842479\Quadrupole=0.0502125,1.0844564,-1.1
 346689,1.9042408,-1.1563872,0.1977708\PG=C01 [X(C2H6O1)]\\@


 If your ship doesn't come in, swim out to it!
                          -- Jonathan Winters
 Job cpu time:       0 days  0 hours  0 minutes 16.3 seconds.
 Elapsed time:       0 days  0 hours  0 minutes  8.3 seconds.
 File lengths (MBytes):  RWF=      6 Int=      0 D2E=      0 Chk=      1 Scr=      1
 Normal termination of Gaussian 16 at Fri Sep 22 16:29:40 2023.
