 Entering Gaussian System, Link 0=g16
 Initial command:
 /share/apps/gaussian/g16/l1.exe "/tmp/55568.mgr/Gau-353339.inp" -scrdir="/tmp/55568.mgr/"
 Entering Link 1 = /share/apps/gaussian/g16/l1.exe PID=    353340.
  
 Copyright (c) 1988,1990,1992,1993,1995,1998,2003,2009,2016,
            Gaussian, Inc.  All Rights Reserved.
  
 This is part of the Gaussian(R) 16 program.  It is based on
 the Gaussian(R) 09 system (copyright 2009, Gaussian, Inc.),
 the Gaussian(R) 03 system (copyright 2003, Gaussian, Inc.),
 the Gaussian(R) 98 system (copyright 1998, Gaussian, Inc.),
 the Gaussian(R) 94 system (copyright 1995, Gaussian, Inc.),
 the Gaussian 92(TM) system (copyright 1992, Gaussian, Inc.),
 the Gaussian 90(TM) system (copyright 1990, Gaussian, Inc.),
 the Gaussian 88(TM) system (copyright 1988, Gaussian, Inc.),
 the Gaussian 86(TM) system (copyright 1986, Carnegie Mellon
 University), and the Gaussian 82(TM) system (copyright 1983,
 Carnegie Mellon University). Gaussian is a federally registered
 trademark of Gaussian, Inc.
  
 This software contains proprietary and confidential information,
 including trade secrets, belonging to Gaussian, Inc.
  
 This software is provided under written license and may be
 used, copied, transmitted, or stored only in accord with that
 written license.
  
 The following legend is applicable only to US Government
 contracts under FAR:
  
                    RESTRICTED RIGHTS LEGEND
  
 Use, reproduction and disclosure by the US Government is
 subject to restrictions as set forth in subparagraphs (a)
 and (c) of the Commercial Computer Software - Restricted
 Rights clause in FAR 52.227-19.
  
 Gaussian, Inc.
 340 Quinnipiac St., Bldg. 40, Wallingford CT 06492
  
  
 ---------------------------------------------------------------
 Warning -- This program may not be used in any manner that
 competes with the business of Gaussian, Inc. or will provide
 assistance to any competitor of Gaussian, Inc.  The licensee
 of this program is prohibited from giving any competitor of
 Gaussian, Inc. access to this program.  By using this program,
 the user acknowledges that Gaussian, Inc. is engaged in the
 business of creating and licensing software in the field of
 computational chemistry and represents and warrants to the
 licensee that it is not a competitor of Gaussian, Inc. and that
 it will not use this program in any manner prohibited above.
 ---------------------------------------------------------------
  

 Cite this work as:
 Gaussian 16, Revision A.03,
 M. J. Frisch, G. W. Trucks, H. B. Schlegel, G. E. Scuseria, 
 M. A. Robb, J. R. Cheeseman, G. Scalmani, V. Barone, 
 G. A. Petersson, H. Nakatsuji, X. Li, M. Caricato, A. V. Marenich, 
 J. Bloino, B. G. Janesko, R. Gomperts, B. Mennucci, H. P. Hratchian, 
 J. V. Ortiz, A. F. Izmaylov, J. L. Sonnenberg, D. Williams-Young, 
 F. Ding, F. Lipparini, F. Egidi, J. Goings, B. Peng, A. Petrone, 
 T. Henderson, D. Ranasinghe, V. G. Zakrzewski, J. Gao, N. Rega, 
 G. Zheng, W. Liang, M. Hada, M. Ehara, K. Toyota, R. Fukuda, 
 J. Hasegawa, M. Ishida, T. Nakajima, Y. Honda, O. Kitao, H. Nakai, 
 T. Vreven, K. Throssell, J. A. Montgomery, Jr., J. E. Peralta, 
 F. Ogliaro, M. J. Bearpark, J. J. Heyd, E. N. Brothers, K. N. Kudin, 
 V. N. Staroverov, T. A. Keith, R. Kobayashi, J. Normand, 
 K. Raghavachari, A. P. Rendell, J. C. Burant, S. S. Iyengar, 
 J. Tomasi, M. Cossi, J. M. Millam, M. Klene, C. Adamo, R. Cammi, 
 J. W. Ochterski, R. L. Martin, K. Morokuma, O. Farkas, 
 J. B. Foresman, and D. J. Fox, Gaussian, Inc., Wallingford CT, 2016.
 
 ******************************************
 Gaussian 16:  ES64L-G16RevA.03 25-Dec-2016
                22-Sep-2023 
 ******************************************
 %nprocshared=2
 Will use up to    2 processors via shared memory.
 %mem=2GB
 ----------------
 # 6-31g(d) wb97x
 ----------------
 1/38=1,172=1/1;
 2/12=2,17=6,18=5,40=1/2;
 3/5=1,6=6,7=1,11=2,25=1,30=1,74=-57/1,2,3;
 4//1;
 5/5=2,38=5/2;
 6/7=2,8=2,9=2,10=2,28=1/1;
 99/5=1,9=1/99;
 --------------------
 tmpdir/M2_ref_60.gjf
 --------------------
 Symbolic Z-matrix:
 Charge =  0 Multiplicity = 1
 O                     9.66123   31.431    35.94876 
 C                     8.58256   30.50288   35.93176 
 H                     8.38576   30.23446   34.87678 
 H                     9.75495   32.01043   35.15926 
 H                     8.98524   29.58364   36.43296 
 H                     7.67513   30.85302   36.41454 
 
                          Input orientation:                          
 ---------------------------------------------------------------------
 Center     Atomic      Atomic             Coordinates (Angstroms)
 Number     Number       Type             X           Y           Z
 ---------------------------------------------------------------------
      1          8           0        9.661228   31.431000   35.948758
      2          6           0        8.582564   30.502876   35.931757
      3          1           0        8.385764   30.234457   34.876776
      4          1           0        9.754950   32.010425   35.159257
      5          1           0        8.985237   29.583640   36.432956
      6          1           0        7.675128   30.853015   36.414543
 ---------------------------------------------------------------------
                    Distance matrix (angstroms):
                    1          2          3          4          5
     1  O    0.000000
     2  C    1.423102   0.000000
     3  H    2.051260   1.106239   0.000000
     4  H    0.983783   2.060085   2.260205   0.000000
     5  H    2.025870   1.121758   1.790147   2.846762   0.000000
     6  H    2.120287   1.085873   1.803426   2.690911   1.824291
                    6
     6  H    0.000000
 Stoichiometry    CH4O
 Framework group  C1[X(CH4O)]
 Deg. of freedom    12
 Full point group                 C1      NOp   1
 Largest Abelian subgroup         C1      NOp   1
 Largest concise Abelian subgroup C1      NOp   1
                         Standard orientation:                         
 ---------------------------------------------------------------------
 Center     Atomic      Atomic             Coordinates (Angstroms)
 Number     Number       Type             X           Y           Z
 ---------------------------------------------------------------------
      1          8           0        0.737739   -0.126823    0.011773
      2          6           0       -0.677196    0.025413    0.012220
      3          1           0       -0.916275    0.953633   -0.540060
      4          1           0        1.268797    0.700685   -0.020441
      5          1           0       -1.059359   -0.829597   -0.605236
      6          1           0       -1.131898    0.037388    0.998234
 ---------------------------------------------------------------------
 Rotational constants (GHZ):         126.9306191          24.4088587          23.6773063
 Standard basis: 6-31G(d) (6D, 7F)
 There are    38 symmetry adapted cartesian basis functions of A   symmetry.
 There are    38 symmetry adapted basis functions of A   symmetry.
    38 basis functions,    72 primitive gaussians,    38 cartesian basis functions
     9 alpha electrons        9 beta electrons
       nuclear repulsion energy        39.9635643717 Hartrees.
 NAtoms=    6 NActive=    6 NUniq=    6 SFac= 1.00D+00 NAtFMM=   60 NAOKFM=F Big=F
 Integral buffers will be    131072 words long.
 Raffenetti 2 integral format.
 Two-electron integral symmetry is turned on.
 One-electron integrals computed using PRISM.
 NBasis=    38 RedAO= T EigKep=  9.70D-03  NBF=    38
 NBsUse=    38 1.00D-06 EigRej= -1.00D+00 NBFU=    38
 ExpMin= 1.61D-01 ExpMax= 5.48D+03 ExpMxC= 8.25D+02 IAcc=3 IRadAn=         5 AccDes= 0.00D+00
 Harris functional with IExCor= 4538 and IRadAn=       5 diagonalized for initial guess.
 HarFok:  IExCor= 4538 AccDes= 0.00D+00 IRadAn=         5 IDoV= 1 UseB2=F ITyADJ=14
 ICtDFT=  3500011 ScaDFX=  1.000000  1.000000  1.000000  1.000000
 FoFCou: FMM=F IPFlag=           0 FMFlag=      100000 FMFlg1=           0
         NFxFlg=           0 DoJE=T BraDBF=F KetDBF=T FulRan=T
         wScrn=  0.000000 ICntrl=       500 IOpCl=  0 I1Cent=   200000004 NGrid=           0
         NMat0=    1 NMatS0=      1 NMatT0=    0 NMatD0=    1 NMtDS0=    0 NMtDT0=    0
 Petite list used in FoFCou.
 Keep R1 ints in memory in canonical form, NReq=2276072.
 Requested convergence on RMS density matrix=1.00D-08 within 128 cycles.
 Requested convergence on MAX density matrix=1.00D-06.
 Requested convergence on             energy=1.00D-06.
 No special actions if energy rises.
 Integral accuracy reduced to 1.0D-05 until final iterations.
 Initial convergence to 1.0D-05 achieved.  Increase integral accuracy.
 SCF Done:  E(RwB97X) =  -115.674351570     A.U. after   13 cycles
            NFock= 13  Conv=0.31D-08     -V/T= 2.0095

 **********************************************************************

            Population analysis using the SCF density.

 **********************************************************************

 Orbital symmetries:
       Occupied  (A) (A) (A) (A) (A) (A) (A) (A) (A)
       Virtual   (A) (A) (A) (A) (A) (A) (A) (A) (A) (A) (A) (A)
                 (A) (A) (A) (A) (A) (A) (A) (A) (A) (A) (A) (A)
                 (A) (A) (A) (A) (A)
 The electronic state is 1-A.
 Alpha  occ. eigenvalues --  -19.20124 -10.30984  -1.12344  -0.80153  -0.60812
 Alpha  occ. eigenvalues --   -0.54807  -0.52480  -0.41522  -0.36568
 Alpha virt. eigenvalues --    0.17176   0.22685   0.26102   0.28338   0.31167
 Alpha virt. eigenvalues --    0.64587   0.66805   0.68953   0.90813   0.96844
 Alpha virt. eigenvalues --    0.97788   1.01553   1.06131   1.09751   1.12555
 Alpha virt. eigenvalues --    1.25056   1.56703   1.60895   1.70241   1.87673
 Alpha virt. eigenvalues --    2.14461   2.20437   2.29320   2.34804   2.50177
 Alpha virt. eigenvalues --    2.63235   2.89831   3.82833   4.34633
          Condensed to atoms (all electrons):
               1          2          3          4          5          6
     1  O    8.261023   0.249293  -0.033205   0.247821  -0.043981  -0.036585
     2  C    0.249293   4.841518   0.379638  -0.024234   0.390986   0.375293
     3  H   -0.033205   0.379638   0.594098  -0.009036  -0.029310  -0.038243
     4  H    0.247821  -0.024234  -0.009036   0.376649   0.004886   0.000650
     5  H   -0.043981   0.390986  -0.029310   0.004886   0.552625  -0.038680
     6  H   -0.036585   0.375293  -0.038243   0.000650  -0.038680   0.583501
 Mulliken charges:
               1
     1  O   -0.644365
     2  C   -0.212493
     3  H    0.136058
     4  H    0.403263
     5  H    0.163474
     6  H    0.154064
 Sum of Mulliken charges =  -0.00000
 Mulliken charges with hydrogens summed into heavy atoms:
               1
     1  O   -0.241103
     2  C    0.241103
 Electronic spatial extent (au):  <R**2>=             84.5603
 Charge=             -0.0000 electrons
 Dipole moment (field-independent basis, Debye):
    X=             -0.6118    Y=              1.6115    Z=             -0.1065  Tot=              1.7270
 Quadrupole moment (field-independent basis, Debye-Ang):
   XX=            -11.9528   YY=            -12.2979   ZZ=            -13.4131
   XY=              2.3347   XZ=             -0.1281   YZ=              0.0270
 Traceless Quadrupole moment (field-independent basis, Debye-Ang):
   XX=              0.6018   YY=              0.2567   ZZ=             -0.8585
   XY=              2.3347   XZ=             -0.1281   YZ=              0.0270
 Octapole moment (field-independent basis, Debye-Ang**2):
  XXX=              5.9595  YYY=              1.0560  ZZZ=              0.3719  XYY=              1.9587
  XXY=              2.6817  XXZ=             -0.0083  XZZ=              0.3337  YZZ=              0.1100
  YYZ=             -0.5752  XYZ=             -0.1645
 Hexadecapole moment (field-independent basis, Debye-Ang**3):
 XXXX=            -58.4567 YYYY=            -19.7361 ZZZZ=            -18.8799 XXXY=              4.3657
 XXXZ=             -0.4471 YYYX=              2.0565 YYYZ=             -0.0293 ZZZX=             -0.5871
 ZZZY=              0.1009 XXYY=            -12.4041 XXZZ=            -13.4520 YYZZ=             -6.4084
 XXYZ=              0.1542 YYXZ=              0.5452 ZZXY=              0.4922
 N-N= 3.996356437166D+01 E-N=-3.509616743053D+02  KE= 1.145829871059D+02
 1\1\GINC-NODE67\SP\RwB97X\6-31G(d)\C1H4O1\YANZ\22-Sep-2023\0\\# 6-31g(
 d) wb97x\\tmpdir/M2_ref_60.gjf\\0,1\O,0,9.661228,31.431,35.948758\C,0,
 8.582564,30.502876,35.931757\H,0,8.385764,30.234457,34.876776\H,0,9.75
 494996,32.01042504,35.15925663\H,0,8.98523717,29.58363995,36.43295612\
 H,0,7.67512802,30.85301531,36.41454336\\Version=ES64L-G16RevA.03\State
 =1-A\HF=-115.6743516\RMSD=3.096e-09\Dipole=-0.38575,-0.0123563,-0.5592
 094\Quadrupole=-0.802626,0.5423304,0.2602955,0.3473157,-0.8745034,-1.3
 985706\PG=C01 [X(C1H4O1)]\\@


 ... A MOLECULAR SYSTEM ... (PASSES) ... FROM ONE STATE OF EQUILIBRIUM 
 TO ANOTHER ... BY MEANS OF ALL POSSIBLE INTERMEDIATE PATHS, 
 BUT THE PATH MOST ECONOMICAL OF ENERGY WILL BE THE MORE OFTEN TRAVELED.

                      -- HENRY EYRING, 1945
 Job cpu time:       0 days  0 hours  0 minutes  8.6 seconds.
 Elapsed time:       0 days  0 hours  0 minutes  4.4 seconds.
 File lengths (MBytes):  RWF=      6 Int=      0 D2E=      0 Chk=      1 Scr=      1
 Normal termination of Gaussian 16 at Fri Sep 22 16:29:30 2023.
