 Entering Gaussian System, Link 0=g16
 Initial command:
 /share/apps/gaussian/g16/l1.exe "/tmp/55568.mgr/Gau-353280.inp" -scrdir="/tmp/55568.mgr/"
 Entering Link 1 = /share/apps/gaussian/g16/l1.exe PID=    353281.
  
 Copyright (c) 1988,1990,1992,1993,1995,1998,2003,2009,2016,
            Gaussian, Inc.  All Rights Reserved.
  
 This is part of the Gaussian(R) 16 program.  It is based on
 the Gaussian(R) 09 system (copyright 2009, Gaussian, Inc.),
 the Gaussian(R) 03 system (copyright 2003, Gaussian, Inc.),
 the Gaussian(R) 98 system (copyright 1998, Gaussian, Inc.),
 the Gaussian(R) 94 system (copyright 1995, Gaussian, Inc.),
 the Gaussian 92(TM) system (copyright 1992, Gaussian, Inc.),
 the Gaussian 90(TM) system (copyright 1990, Gaussian, Inc.),
 the Gaussian 88(TM) system (copyright 1988, Gaussian, Inc.),
 the Gaussian 86(TM) system (copyright 1986, Carnegie Mellon
 University), and the Gaussian 82(TM) system (copyright 1983,
 Carnegie Mellon University). Gaussian is a federally registered
 trademark of Gaussian, Inc.
  
 This software contains proprietary and confidential information,
 including trade secrets, belonging to Gaussian, Inc.
  
 This software is provided under written license and may be
 used, copied, transmitted, or stored only in accord with that
 written license.
  
 The following legend is applicable only to US Government
 contracts under FAR:
  
                    RESTRICTED RIGHTS LEGEND
  
 Use, reproduction and disclosure by the US Government is
 subject to restrictions as set forth in subparagraphs (a)
 and (c) of the Commercial Computer Software - Restricted
 Rights clause in FAR 52.227-19.
  
 Gaussian, Inc.
 340 Quinnipiac St., Bldg. 40, Wallingford CT 06492
  
  
 ---------------------------------------------------------------
 Warning -- This program may not be used in any manner that
 competes with the business of Gaussian, Inc. or will provide
 assistance to any competitor of Gaussian, Inc.  The licensee
 of this program is prohibited from giving any competitor of
 Gaussian, Inc. access to this program.  By using this program,
 the user acknowledges that Gaussian, Inc. is engaged in the
 business of creating and licensing software in the field of
 computational chemistry and represents and warrants to the
 licensee that it is not a competitor of Gaussian, Inc. and that
 it will not use this program in any manner prohibited above.
 ---------------------------------------------------------------
  

 Cite this work as:
 Gaussian 16, Revision A.03,
 M. J. Frisch, G. W. Trucks, H. B. Schlegel, G. E. Scuseria, 
 M. A. Robb, J. R. Cheeseman, G. Scalmani, V. Barone, 
 G. A. Petersson, H. Nakatsuji, X. Li, M. Caricato, A. V. Marenich, 
 J. Bloino, B. G. Janesko, R. Gomperts, B. Mennucci, H. P. Hratchian, 
 J. V. Ortiz, A. F. Izmaylov, J. L. Sonnenberg, D. Williams-Young, 
 F. Ding, F. Lipparini, F. Egidi, J. Goings, B. Peng, A. Petrone, 
 T. Henderson, D. Ranasinghe, V. G. Zakrzewski, J. Gao, N. Rega, 
 G. Zheng, W. Liang, M. Hada, M. Ehara, K. Toyota, R. Fukuda, 
 J. Hasegawa, M. Ishida, T. Nakajima, Y. Honda, O. Kitao, H. Nakai, 
 T. Vreven, K. Throssell, J. A. Montgomery, Jr., J. E. Peralta, 
 F. Ogliaro, M. J. Bearpark, J. J. Heyd, E. N. Brothers, K. N. Kudin, 
 V. N. Staroverov, T. A. Keith, R. Kobayashi, J. Normand, 
 K. Raghavachari, A. P. Rendell, J. C. Burant, S. S. Iyengar, 
 J. Tomasi, M. Cossi, J. M. Millam, M. Klene, C. Adamo, R. Cammi, 
 J. W. Ochterski, R. L. Martin, K. Morokuma, O. Farkas, 
 J. B. Foresman, and D. J. Fox, Gaussian, Inc., Wallingford CT, 2016.
 
 ******************************************
 Gaussian 16:  ES64L-G16RevA.03 25-Dec-2016
                22-Sep-2023 
 ******************************************
 %nprocshared=2
 Will use up to    2 processors via shared memory.
 %mem=2GB
 ----------------
 # 6-31g(d) wb97x
 ----------------
 1/38=1,172=1/1;
 2/12=2,17=6,18=5,40=1/2;
 3/5=1,6=6,7=1,11=2,25=1,30=1,74=-57/1,2,3;
 4//1;
 5/5=2,38=5/2;
 6/7=2,8=2,9=2,10=2,28=1/1;
 99/5=1,9=1/99;
 --------------------
 tmpdir/M2_ref_57.gjf
 --------------------
 Symbolic Z-matrix:
 Charge =  0 Multiplicity = 1
 C                     9.13883   29.23301   36.62413 
 C                     8.58256   30.50288   35.93176 
 H                     8.38576   30.23446   34.87678 
 H                     8.31965   28.4932   36.7181 
 H                     10.06802   28.93908   36.00239 
 H                     9.46581   29.53373   37.63046 
 H                     7.67513   30.85302   36.41454 
 H                     9.46824   31.26495   35.94572 
 
                          Input orientation:                          
 ---------------------------------------------------------------------
 Center     Atomic      Atomic             Coordinates (Angstroms)
 Number     Number       Type             X           Y           Z
 ---------------------------------------------------------------------
      1          6           0        9.138830   29.233013   36.624130
      2          6           0        8.582564   30.502876   35.931757
      3          1           0        8.385764   30.234457   34.876776
      4          1           0        8.319649   28.493204   36.718098
      5          1           0       10.068022   28.939080   36.002387
      6          1           0        9.465810   29.533731   37.630456
      7          1           0        7.675128   30.853015   36.414543
      8          1           0        9.468244   31.264949   35.945716
 ---------------------------------------------------------------------
                    Distance matrix (angstroms):
                    1          2          3          4          5
     1  C    0.000000
     2  C    1.549634   0.000000
     3  H    2.150173   1.106239   0.000000
     4  H    1.107793   2.173992   2.535114   0.000000
     5  H    1.156010   2.158016   2.403122   1.941097   0.000000
     6  H    1.100018   2.145913   3.039781   1.796880   1.834906
     7  H    2.193344   1.085873   1.803426   2.465008   3.091757
     8  H    2.167377   1.168495   1.837474   3.098132   2.402626
                    6          7          8
     6  H    0.000000
     7  H    2.534856   0.000000
     8  H    2.415672   1.898619   0.000000
 Stoichiometry    C2H6
 Framework group  C1[X(C2H6)]
 Deg. of freedom    18
 Full point group                 C1      NOp   1
 Largest Abelian subgroup         C1      NOp   1
 Largest concise Abelian subgroup C1      NOp   1
                         Standard orientation:                         
 ---------------------------------------------------------------------
 Center     Atomic      Atomic             Coordinates (Angstroms)
 Number     Number       Type             X           Y           Z
 ---------------------------------------------------------------------
      1          6           0        0.777479   -0.009367   -0.010634
      2          6           0       -0.772023   -0.018535    0.007371
      3          1           0       -1.106899    0.083883   -1.041978
      4          1           0        1.132005   -0.955671   -0.464535
      5          1           0        1.062211    0.983045   -0.530641
      6          1           0        1.110016    0.030867    1.037144
      7          1           0       -1.158500   -0.933533    0.446158
      8          1           0       -1.071576    0.958820    0.573432
 ---------------------------------------------------------------------
 Rotational constants (GHZ):          72.9827427          20.1872160          19.7932922
 Standard basis: 6-31G(d) (6D, 7F)
 There are    42 symmetry adapted cartesian basis functions of A   symmetry.
 There are    42 symmetry adapted basis functions of A   symmetry.
    42 basis functions,    80 primitive gaussians,    42 cartesian basis functions
     9 alpha electrons        9 beta electrons
       nuclear repulsion energy        41.6277860450 Hartrees.
 NAtoms=    8 NActive=    8 NUniq=    8 SFac= 1.00D+00 NAtFMM=   60 NAOKFM=F Big=F
 Integral buffers will be    131072 words long.
 Raffenetti 2 integral format.
 Two-electron integral symmetry is turned on.
 One-electron integrals computed using PRISM.
 NBasis=    42 RedAO= T EigKep=  8.36D-03  NBF=    42
 NBsUse=    42 1.00D-06 EigRej= -1.00D+00 NBFU=    42
 ExpMin= 1.61D-01 ExpMax= 3.05D+03 ExpMxC= 4.57D+02 IAcc=3 IRadAn=         5 AccDes= 0.00D+00
 Harris functional with IExCor= 4538 and IRadAn=       5 diagonalized for initial guess.
 HarFok:  IExCor= 4538 AccDes= 0.00D+00 IRadAn=         5 IDoV= 1 UseB2=F ITyADJ=14
 ICtDFT=  3500011 ScaDFX=  1.000000  1.000000  1.000000  1.000000
 FoFCou: FMM=F IPFlag=           0 FMFlag=      100000 FMFlg1=           0
         NFxFlg=           0 DoJE=T BraDBF=F KetDBF=T FulRan=T
         wScrn=  0.000000 ICntrl=       500 IOpCl=  0 I1Cent=   200000004 NGrid=           0
         NMat0=    1 NMatS0=      1 NMatT0=    0 NMatD0=    1 NMtDS0=    0 NMtDT0=    0
 Petite list used in FoFCou.
 Keep R1 ints in memory in canonical form, NReq=2543288.
 Requested convergence on RMS density matrix=1.00D-08 within 128 cycles.
 Requested convergence on MAX density matrix=1.00D-06.
 Requested convergence on             energy=1.00D-06.
 No special actions if energy rises.
 Integral accuracy reduced to 1.0D-05 until final iterations.
 Initial convergence to 1.0D-05 achieved.  Increase integral accuracy.
 SCF Done:  E(RwB97X) =  -79.7896327318     A.U. after   12 cycles
            NFock= 12  Conv=0.37D-08     -V/T= 2.0130

 **********************************************************************

            Population analysis using the SCF density.

 **********************************************************************

 Orbital symmetries:
       Occupied  (A) (A) (A) (A) (A) (A) (A) (A) (A)
       Virtual   (A) (A) (A) (A) (A) (A) (A) (A) (A) (A) (A) (A)
                 (A) (A) (A) (A) (A) (A) (A) (A) (A) (A) (A) (A)
                 (A) (A) (A) (A) (A) (A) (A) (A) (A)
 The electronic state is 1-A.
 Alpha  occ. eigenvalues --  -10.26402 -10.26296  -0.87528  -0.72036  -0.55081
 Alpha  occ. eigenvalues --   -0.53782  -0.44858  -0.44510  -0.43284
 Alpha virt. eigenvalues --    0.18462   0.24861   0.25774   0.26035   0.27124
 Alpha virt. eigenvalues --    0.28622   0.32017   0.61784   0.65957   0.68206
 Alpha virt. eigenvalues --    0.72126   0.74674   0.77339   0.95192   0.98470
 Alpha virt. eigenvalues --    1.00503   1.03358   1.04493   1.08274   1.17961
 Alpha virt. eigenvalues --    1.52496   1.61469   1.62489   2.03406   2.11433
 Alpha virt. eigenvalues --    2.15621   2.31215   2.32824   2.36783   2.41764
 Alpha virt. eigenvalues --    2.69808   4.25475   4.48100
          Condensed to atoms (all electrons):
               1          2          3          4          5          6
     1  C    5.070218   0.344900  -0.039485   0.385699   0.382785   0.387244
     2  C    0.344900   5.074264   0.386600  -0.037717  -0.039973  -0.039253
     3  H   -0.039485   0.386600   0.555839  -0.002935  -0.005147   0.004781
     4  H    0.385699  -0.037717  -0.002935   0.541601  -0.016518  -0.029088
     5  H    0.382785  -0.039973  -0.005147  -0.016518   0.559246  -0.027112
     6  H    0.387244  -0.039253   0.004781  -0.029088  -0.027112   0.554686
     7  H   -0.034349   0.388251  -0.027331  -0.002689   0.004104  -0.002707
     8  H   -0.040563   0.380802  -0.027330   0.004330  -0.002668  -0.005245
               7          8
     1  C   -0.034349  -0.040563
     2  C    0.388251   0.380802
     3  H   -0.027331  -0.027330
     4  H   -0.002689   0.004330
     5  H    0.004104  -0.002668
     6  H   -0.002707  -0.005245
     7  H    0.531917  -0.019664
     8  H   -0.019664   0.572782
 Mulliken charges:
               1
     1  C   -0.456449
     2  C   -0.457874
     3  H    0.155007
     4  H    0.157316
     5  H    0.145283
     6  H    0.156693
     7  H    0.162467
     8  H    0.137557
 Sum of Mulliken charges =   0.00000
 Mulliken charges with hydrogens summed into heavy atoms:
               1
     1  C    0.002843
     2  C   -0.002843
 Electronic spatial extent (au):  <R**2>=            110.2284
 Charge=              0.0000 electrons
 Dipole moment (field-independent basis, Debye):
    X=             -0.0068    Y=             -0.0561    Z=              0.0128  Tot=              0.0579
 Quadrupole moment (field-independent basis, Debye-Ang):
   XX=            -16.1594   YY=            -14.2979   ZZ=            -14.8750
   XY=              0.0521   XZ=              0.1277   YZ=             -0.0484
 Traceless Quadrupole moment (field-independent basis, Debye-Ang):
   XX=             -1.0486   YY=              0.8129   ZZ=              0.2358
   XY=              0.0521   XZ=              0.1277   YZ=             -0.0484
 Octapole moment (field-independent basis, Debye-Ang**2):
  XXX=             -0.1463  YYY=             -0.3245  ZZZ=              0.0480  XYY=              0.0731
  XXY=             -0.4796  XXZ=              0.0867  XZZ=             -0.0442  YZZ=              0.0912
  YYZ=             -0.0274  XYZ=              0.0885
 Hexadecapole moment (field-independent basis, Debye-Ang**3):
 XXXX=            -94.4235 YYYY=            -30.1737 ZZZZ=            -29.1188 XXXY=              0.2542
 XXXZ=              0.4543 YYYX=              0.1928 YYYZ=             -0.0595 ZZZX=              1.7125
 ZZZY=             -0.1172 XXYY=            -19.1657 XXZZ=            -19.5367 YYZZ=             -9.9534
 XXYZ=             -0.1049 YYXZ=             -1.4151 ZZXY=             -0.0329
 N-N= 4.162778604504D+01 E-N=-2.668516331157D+02  KE= 7.876395070549D+01
 1\1\GINC-NODE67\SP\RwB97X\6-31G(d)\C2H6\YANZ\22-Sep-2023\0\\# 6-31g(d)
  wb97x\\tmpdir/M2_ref_57.gjf\\0,1\C,0,9.13883,29.233013,36.62413\C,0,8
 .582564,30.502876,35.931757\H,0,8.385764,30.234457,34.876776\H,0,8.319
 64875,28.49320368,36.71809837\H,0,10.06802234,28.93908026,36.00238665\
 H,0,9.46581,29.533731,37.630456\H,0,7.67512802,30.85301531,36.41454336
 \H,0,9.46824422,31.26494934,35.94571635\\Version=ES64L-G16RevA.03\Stat
 e=1-A\HF=-79.7896327\RMSD=3.672e-09\Dipole=-0.020429,0.0000353,0.01010
 79\Quadrupole=0.4434671,-0.5431494,0.0996822,0.3233038,-0.2622663,0.29
 93094\PG=C01 [X(C2H6)]\\@


 THE MOST INCOMPREHENSIBLE THING ABOUT THE WORLD
 IS THAT IT IS COMPREHENSIBLE. -- A. EINSTEIN
 Job cpu time:       0 days  0 hours  0 minutes 10.8 seconds.
 Elapsed time:       0 days  0 hours  0 minutes  5.4 seconds.
 File lengths (MBytes):  RWF=      6 Int=      0 D2E=      0 Chk=      1 Scr=      1
 Normal termination of Gaussian 16 at Fri Sep 22 16:29:28 2023.
