 Entering Gaussian System, Link 0=g16
 Initial command:
 /share/apps/gaussian/g16/l1.exe "/tmp/55568.mgr/Gau-354212.inp" -scrdir="/tmp/55568.mgr/"
 Entering Link 1 = /share/apps/gaussian/g16/l1.exe PID=    354213.
  
 Copyright (c) 1988,1990,1992,1993,1995,1998,2003,2009,2016,
            Gaussian, Inc.  All Rights Reserved.
  
 This is part of the Gaussian(R) 16 program.  It is based on
 the Gaussian(R) 09 system (copyright 2009, Gaussian, Inc.),
 the Gaussian(R) 03 system (copyright 2003, Gaussian, Inc.),
 the Gaussian(R) 98 system (copyright 1998, Gaussian, Inc.),
 the Gaussian(R) 94 system (copyright 1995, Gaussian, Inc.),
 the Gaussian 92(TM) system (copyright 1992, Gaussian, Inc.),
 the Gaussian 90(TM) system (copyright 1990, Gaussian, Inc.),
 the Gaussian 88(TM) system (copyright 1988, Gaussian, Inc.),
 the Gaussian 86(TM) system (copyright 1986, Carnegie Mellon
 University), and the Gaussian 82(TM) system (copyright 1983,
 Carnegie Mellon University). Gaussian is a federally registered
 trademark of Gaussian, Inc.
  
 This software contains proprietary and confidential information,
 including trade secrets, belonging to Gaussian, Inc.
  
 This software is provided under written license and may be
 used, copied, transmitted, or stored only in accord with that
 written license.
  
 The following legend is applicable only to US Government
 contracts under FAR:
  
                    RESTRICTED RIGHTS LEGEND
  
 Use, reproduction and disclosure by the US Government is
 subject to restrictions as set forth in subparagraphs (a)
 and (c) of the Commercial Computer Software - Restricted
 Rights clause in FAR 52.227-19.
  
 Gaussian, Inc.
 340 Quinnipiac St., Bldg. 40, Wallingford CT 06492
  
  
 ---------------------------------------------------------------
 Warning -- This program may not be used in any manner that
 competes with the business of Gaussian, Inc. or will provide
 assistance to any competitor of Gaussian, Inc.  The licensee
 of this program is prohibited from giving any competitor of
 Gaussian, Inc. access to this program.  By using this program,
 the user acknowledges that Gaussian, Inc. is engaged in the
 business of creating and licensing software in the field of
 computational chemistry and represents and warrants to the
 licensee that it is not a competitor of Gaussian, Inc. and that
 it will not use this program in any manner prohibited above.
 ---------------------------------------------------------------
  

 Cite this work as:
 Gaussian 16, Revision A.03,
 M. J. Frisch, G. W. Trucks, H. B. Schlegel, G. E. Scuseria, 
 M. A. Robb, J. R. Cheeseman, G. Scalmani, V. Barone, 
 G. A. Petersson, H. Nakatsuji, X. Li, M. Caricato, A. V. Marenich, 
 J. Bloino, B. G. Janesko, R. Gomperts, B. Mennucci, H. P. Hratchian, 
 J. V. Ortiz, A. F. Izmaylov, J. L. Sonnenberg, D. Williams-Young, 
 F. Ding, F. Lipparini, F. Egidi, J. Goings, B. Peng, A. Petrone, 
 T. Henderson, D. Ranasinghe, V. G. Zakrzewski, J. Gao, N. Rega, 
 G. Zheng, W. Liang, M. Hada, M. Ehara, K. Toyota, R. Fukuda, 
 J. Hasegawa, M. Ishida, T. Nakajima, Y. Honda, O. Kitao, H. Nakai, 
 T. Vreven, K. Throssell, J. A. Montgomery, Jr., J. E. Peralta, 
 F. Ogliaro, M. J. Bearpark, J. J. Heyd, E. N. Brothers, K. N. Kudin, 
 V. N. Staroverov, T. A. Keith, R. Kobayashi, J. Normand, 
 K. Raghavachari, A. P. Rendell, J. C. Burant, S. S. Iyengar, 
 J. Tomasi, M. Cossi, J. M. Millam, M. Klene, C. Adamo, R. Cammi, 
 J. W. Ochterski, R. L. Martin, K. Morokuma, O. Farkas, 
 J. B. Foresman, and D. J. Fox, Gaussian, Inc., Wallingford CT, 2016.
 
 ******************************************
 Gaussian 16:  ES64L-G16RevA.03 25-Dec-2016
                22-Sep-2023 
 ******************************************
 %nprocshared=2
 Will use up to    2 processors via shared memory.
 %mem=2GB
 ----------------
 # 6-31g(d) wb97x
 ----------------
 1/38=1,172=1/1;
 2/12=2,17=6,18=5,40=1/2;
 3/5=1,6=6,7=1,11=2,25=1,30=1,74=-57/1,2,3;
 4//1;
 5/5=2,38=5/2;
 6/7=2,8=2,9=2,10=2,28=1/1;
 99/5=1,9=1/99;
 ---------------------
 tmpdir/M2_ref_103.gjf
 ---------------------
 Symbolic Z-matrix:
 Charge =  0 Multiplicity = 1
 C                     9.79769   32.27465   34.79924 
 C                     11.19649   32.87936   34.87472 
 H                     11.27855   33.46883   35.79478 
 H                     9.68564   31.58194   35.7431 
 H                     8.99931   33.03979   34.72557 
 H                     9.74144   31.63216   33.9002 
 H                     12.00723   32.12931   34.84221 
 H                     11.30452   33.57944   34.03695 
 
                          Input orientation:                          
 ---------------------------------------------------------------------
 Center     Atomic      Atomic             Coordinates (Angstroms)
 Number     Number       Type             X           Y           Z
 ---------------------------------------------------------------------
      1          6           0        9.797688   32.274648   34.799237
      2          6           0       11.196489   32.879363   34.874723
      3          1           0       11.278550   33.468826   35.794783
      4          1           0        9.685642   31.581937   35.743097
      5          1           0        8.999313   33.039789   34.725574
      6          1           0        9.741440   31.632164   33.900198
      7          1           0       12.007234   32.129311   34.842209
      8          1           0       11.304517   33.579445   34.036954
 ---------------------------------------------------------------------
                    Distance matrix (angstroms):
                    1          2          3          4          5
     1  C    0.000000
     2  C    1.525786   0.000000
     3  H    2.147120   1.095770   0.000000
     4  H    1.176127   2.172567   2.469894   0.000000
     5  H    1.108273   2.208068   2.553860   1.905711   0.000000
     6  H    1.106445   2.149970   3.053766   1.844428   1.792598
     7  H    2.214738   1.104963   1.797965   2.549707   3.144863
     8  H    2.134035   1.097106   1.761498   3.085728   2.465643
                    6          7          8
     6  H    0.000000
     7  H    2.503670   0.000000
     8  H    2.500763   1.801426   0.000000
 Stoichiometry    C2H6
 Framework group  C1[X(C2H6)]
 Deg. of freedom    18
 Full point group                 C1      NOp   1
 Largest Abelian subgroup         C1      NOp   1
 Largest concise Abelian subgroup C1      NOp   1
                         Standard orientation:                         
 ---------------------------------------------------------------------
 Center     Atomic      Atomic             Coordinates (Angstroms)
 Number     Number       Type             X           Y           Z
 ---------------------------------------------------------------------
      1          6           0        0.763990    0.006325   -0.002861
      2          6           0       -0.761769   -0.001248    0.002058
      3          1           0       -1.118999   -0.096810   -1.029429
      4          1           0        1.098204   -1.024394   -0.460240
      5          1           0        1.190271    0.877452   -0.539232
      6          1           0        1.117881    0.041518    1.044871
      7          1           0       -1.200186   -0.804431    0.621437
      8          1           0       -1.100502    0.976207    0.367413
 ---------------------------------------------------------------------
 Rotational constants (GHZ):          75.9060726          20.2111271          20.0050987
 Standard basis: 6-31G(d) (6D, 7F)
 There are    42 symmetry adapted cartesian basis functions of A   symmetry.
 There are    42 symmetry adapted basis functions of A   symmetry.
    42 basis functions,    80 primitive gaussians,    42 cartesian basis functions
     9 alpha electrons        9 beta electrons
       nuclear repulsion energy        41.8890054819 Hartrees.
 NAtoms=    8 NActive=    8 NUniq=    8 SFac= 1.00D+00 NAtFMM=   60 NAOKFM=F Big=F
 Integral buffers will be    131072 words long.
 Raffenetti 2 integral format.
 Two-electron integral symmetry is turned on.
 One-electron integrals computed using PRISM.
 NBasis=    42 RedAO= T EigKep=  8.28D-03  NBF=    42
 NBsUse=    42 1.00D-06 EigRej= -1.00D+00 NBFU=    42
 ExpMin= 1.61D-01 ExpMax= 3.05D+03 ExpMxC= 4.57D+02 IAcc=3 IRadAn=         5 AccDes= 0.00D+00
 Harris functional with IExCor= 4538 and IRadAn=       5 diagonalized for initial guess.
 HarFok:  IExCor= 4538 AccDes= 0.00D+00 IRadAn=         5 IDoV= 1 UseB2=F ITyADJ=14
 ICtDFT=  3500011 ScaDFX=  1.000000  1.000000  1.000000  1.000000
 FoFCou: FMM=F IPFlag=           0 FMFlag=      100000 FMFlg1=           0
         NFxFlg=           0 DoJE=T BraDBF=F KetDBF=T FulRan=T
         wScrn=  0.000000 ICntrl=       500 IOpCl=  0 I1Cent=   200000004 NGrid=           0
         NMat0=    1 NMatS0=      1 NMatT0=    0 NMatD0=    1 NMtDS0=    0 NMtDT0=    0
 Petite list used in FoFCou.
 Keep R1 ints in memory in canonical form, NReq=2543288.
 Requested convergence on RMS density matrix=1.00D-08 within 128 cycles.
 Requested convergence on MAX density matrix=1.00D-06.
 Requested convergence on             energy=1.00D-06.
 No special actions if energy rises.
 Integral accuracy reduced to 1.0D-05 until final iterations.
 Initial convergence to 1.0D-05 achieved.  Increase integral accuracy.
 SCF Done:  E(RwB97X) =  -79.7951398526     A.U. after   12 cycles
            NFock= 12  Conv=0.21D-08     -V/T= 2.0122

 **********************************************************************

            Population analysis using the SCF density.

 **********************************************************************

 Orbital symmetries:
       Occupied  (A) (A) (A) (A) (A) (A) (A) (A) (A)
       Virtual   (A) (A) (A) (A) (A) (A) (A) (A) (A) (A) (A) (A)
                 (A) (A) (A) (A) (A) (A) (A) (A) (A) (A) (A) (A)
                 (A) (A) (A) (A) (A) (A) (A) (A) (A)
 The electronic state is 1-A.
 Alpha  occ. eigenvalues --  -10.26569 -10.25584  -0.87830  -0.72553  -0.54486
 Alpha  occ. eigenvalues --   -0.53914  -0.46495  -0.44084  -0.43143
 Alpha virt. eigenvalues --    0.19184   0.24940   0.25208   0.26083   0.27719
 Alpha virt. eigenvalues --    0.29046   0.33540   0.61517   0.65159   0.66803
 Alpha virt. eigenvalues --    0.72899   0.76053   0.78770   0.96689   0.99508
 Alpha virt. eigenvalues --    1.00134   1.03387   1.03994   1.08790   1.17378
 Alpha virt. eigenvalues --    1.53992   1.60694   1.63756   2.04254   2.07765
 Alpha virt. eigenvalues --    2.14050   2.32994   2.35527   2.40786   2.44457
 Alpha virt. eigenvalues --    2.70516   4.26478   4.48473
          Condensed to atoms (all electrons):
               1          2          3          4          5          6
     1  C    5.060940   0.350486  -0.037967   0.379535   0.387411   0.385772
     2  C    0.350486   5.058820   0.389098  -0.041118  -0.032069  -0.038722
     3  H   -0.037967   0.389098   0.552066  -0.004791  -0.002768   0.004637
     4  H    0.379535  -0.041118  -0.004791   0.575046  -0.020790  -0.026254
     5  H    0.387411  -0.032069  -0.002768  -0.020790   0.538331  -0.029614
     6  H    0.385772  -0.038722   0.004637  -0.026254  -0.029614   0.556218
     7  H   -0.030356   0.388939  -0.026889  -0.002445   0.003475  -0.004017
     8  H   -0.039938   0.387221  -0.029552   0.004663  -0.003544  -0.003182
               7          8
     1  C   -0.030356  -0.039938
     2  C    0.388939   0.387221
     3  H   -0.026889  -0.029552
     4  H   -0.002445   0.004663
     5  H    0.003475  -0.003544
     6  H   -0.004017  -0.003182
     7  H    0.539053  -0.025735
     8  H   -0.025735   0.556556
 Mulliken charges:
               1
     1  C   -0.455883
     2  C   -0.462654
     3  H    0.156166
     4  H    0.136153
     5  H    0.159568
     6  H    0.155163
     7  H    0.157975
     8  H    0.153511
 Sum of Mulliken charges =  -0.00000
 Mulliken charges with hydrogens summed into heavy atoms:
               1
     1  C   -0.004998
     2  C    0.004998
 Electronic spatial extent (au):  <R**2>=            109.7854
 Charge=             -0.0000 electrons
 Dipole moment (field-independent basis, Debye):
    X=             -0.0500    Y=              0.0627    Z=              0.0310  Tot=              0.0860
 Quadrupole moment (field-independent basis, Debye-Ang):
   XX=            -15.6816   YY=            -14.5605   ZZ=            -14.7975
   XY=              0.2582   XZ=             -0.0058   YZ=             -0.0889
 Traceless Quadrupole moment (field-independent basis, Debye-Ang):
   XX=             -0.6684   YY=              0.4527   ZZ=              0.2157
   XY=              0.2582   XZ=             -0.0058   YZ=             -0.0889
 Octapole moment (field-independent basis, Debye-Ang**2):
  XXX=             -0.5115  YYY=              0.2700  ZZZ=              0.1702  XYY=              0.0416
  XXY=              0.1895  XXZ=              0.1241  XZZ=             -0.1669  YZZ=             -0.0472
  YYZ=             -0.0852  XYZ=              0.0514
 Hexadecapole moment (field-independent basis, Debye-Ang**3):
 XXXX=            -93.1453 YYYY=            -29.6777 ZZZZ=            -28.8535 XXXY=              1.1447
 XXXZ=             -0.0828 YYYX=             -0.0033 YYYZ=             -0.0453 ZZZX=              1.4368
 ZZZY=             -0.2058 XXYY=            -19.0544 XXZZ=            -19.2089 YYZZ=             -9.8600
 XXYZ=             -0.3879 YYXZ=             -1.3666 ZZXY=              0.5234
 N-N= 4.188900548193D+01 E-N=-2.674239776579D+02  KE= 7.883013426512D+01
 1\1\GINC-NODE67\SP\RwB97X\6-31G(d)\C2H6\YANZ\22-Sep-2023\0\\# 6-31g(d)
  wb97x\\tmpdir/M2_ref_103.gjf\\0,1\C,0,9.797688,32.274648,34.799237\C,
 0,11.196489,32.879363,34.874723\H,0,11.27855,33.468826,35.794783\H,0,9
 .68564206,31.58193706,35.7430972\H,0,8.99931268,33.03978899,34.7255743
 6\H,0,9.74144,31.632164,33.900198\H,0,12.00723408,32.12931069,34.84220
 894\H,0,11.304517,33.579445,34.036954\\Version=ES64L-G16RevA.03\State=
 1-A\HF=-79.7951399\RMSD=2.146e-09\Dipole=0.0137039,0.0206373,-0.023033
 9\Quadrupole=-0.2526922,0.0885723,0.16412,-0.4185546,0.0933841,-0.0317
 507\PG=C01 [X(C2H6)]\\@


 THE FIRST AND LAST THING REQUIRED OF GENIUS IS THE LOVE OF TRUTH.

                          -- GOETHE
 Job cpu time:       0 days  0 hours  0 minutes 10.5 seconds.
 Elapsed time:       0 days  0 hours  0 minutes  5.2 seconds.
 File lengths (MBytes):  RWF=      6 Int=      0 D2E=      0 Chk=      1 Scr=      1
 Normal termination of Gaussian 16 at Fri Sep 22 16:30:01 2023.
