 Entering Gaussian System, Link 0=g16
 Initial command:
 /share/apps/gaussian/g16/l1.exe "/tmp/55568.mgr/Gau-354129.inp" -scrdir="/tmp/55568.mgr/"
 Entering Link 1 = /share/apps/gaussian/g16/l1.exe PID=    354130.
  
 Copyright (c) 1988,1990,1992,1993,1995,1998,2003,2009,2016,
            Gaussian, Inc.  All Rights Reserved.
  
 This is part of the Gaussian(R) 16 program.  It is based on
 the Gaussian(R) 09 system (copyright 2009, Gaussian, Inc.),
 the Gaussian(R) 03 system (copyright 2003, Gaussian, Inc.),
 the Gaussian(R) 98 system (copyright 1998, Gaussian, Inc.),
 the Gaussian(R) 94 system (copyright 1995, Gaussian, Inc.),
 the Gaussian 92(TM) system (copyright 1992, Gaussian, Inc.),
 the Gaussian 90(TM) system (copyright 1990, Gaussian, Inc.),
 the Gaussian 88(TM) system (copyright 1988, Gaussian, Inc.),
 the Gaussian 86(TM) system (copyright 1986, Carnegie Mellon
 University), and the Gaussian 82(TM) system (copyright 1983,
 Carnegie Mellon University). Gaussian is a federally registered
 trademark of Gaussian, Inc.
  
 This software contains proprietary and confidential information,
 including trade secrets, belonging to Gaussian, Inc.
  
 This software is provided under written license and may be
 used, copied, transmitted, or stored only in accord with that
 written license.
  
 The following legend is applicable only to US Government
 contracts under FAR:
  
                    RESTRICTED RIGHTS LEGEND
  
 Use, reproduction and disclosure by the US Government is
 subject to restrictions as set forth in subparagraphs (a)
 and (c) of the Commercial Computer Software - Restricted
 Rights clause in FAR 52.227-19.
  
 Gaussian, Inc.
 340 Quinnipiac St., Bldg. 40, Wallingford CT 06492
  
  
 ---------------------------------------------------------------
 Warning -- This program may not be used in any manner that
 competes with the business of Gaussian, Inc. or will provide
 assistance to any competitor of Gaussian, Inc.  The licensee
 of this program is prohibited from giving any competitor of
 Gaussian, Inc. access to this program.  By using this program,
 the user acknowledges that Gaussian, Inc. is engaged in the
 business of creating and licensing software in the field of
 computational chemistry and represents and warrants to the
 licensee that it is not a competitor of Gaussian, Inc. and that
 it will not use this program in any manner prohibited above.
 ---------------------------------------------------------------
  

 Cite this work as:
 Gaussian 16, Revision A.03,
 M. J. Frisch, G. W. Trucks, H. B. Schlegel, G. E. Scuseria, 
 M. A. Robb, J. R. Cheeseman, G. Scalmani, V. Barone, 
 G. A. Petersson, H. Nakatsuji, X. Li, M. Caricato, A. V. Marenich, 
 J. Bloino, B. G. Janesko, R. Gomperts, B. Mennucci, H. P. Hratchian, 
 J. V. Ortiz, A. F. Izmaylov, J. L. Sonnenberg, D. Williams-Young, 
 F. Ding, F. Lipparini, F. Egidi, J. Goings, B. Peng, A. Petrone, 
 T. Henderson, D. Ranasinghe, V. G. Zakrzewski, J. Gao, N. Rega, 
 G. Zheng, W. Liang, M. Hada, M. Ehara, K. Toyota, R. Fukuda, 
 J. Hasegawa, M. Ishida, T. Nakajima, Y. Honda, O. Kitao, H. Nakai, 
 T. Vreven, K. Throssell, J. A. Montgomery, Jr., J. E. Peralta, 
 F. Ogliaro, M. J. Bearpark, J. J. Heyd, E. N. Brothers, K. N. Kudin, 
 V. N. Staroverov, T. A. Keith, R. Kobayashi, J. Normand, 
 K. Raghavachari, A. P. Rendell, J. C. Burant, S. S. Iyengar, 
 J. Tomasi, M. Cossi, J. M. Millam, M. Klene, C. Adamo, R. Cammi, 
 J. W. Ochterski, R. L. Martin, K. Morokuma, O. Farkas, 
 J. B. Foresman, and D. J. Fox, Gaussian, Inc., Wallingford CT, 2016.
 
 ******************************************
 Gaussian 16:  ES64L-G16RevA.03 25-Dec-2016
                22-Sep-2023 
 ******************************************
 %nprocshared=2
 Will use up to    2 processors via shared memory.
 %mem=2GB
 ----------------
 # 6-31g(d) wb97x
 ----------------
 1/38=1,172=1/1;
 2/12=2,17=6,18=5,40=1/2;
 3/5=1,6=6,7=1,11=2,25=1,30=1,74=-57/1,2,3;
 4//1;
 5/5=2,38=5/2;
 6/7=2,8=2,9=2,10=2,28=1/1;
 99/5=1,9=1/99;
 ---------------------
 tmpdir/M2_ref_123.gjf
 ---------------------
 Symbolic Z-matrix:
 Charge =  0 Multiplicity = 1
 H                     7.73063   34.91407   35.82268 
 C                     8.6207    34.28202   35.89085 
 H                     9.49422   34.94152   35.93921 
 H                     8.67433   33.59405   35.02698 
 H                     8.56128   33.72644   36.8319 
 
                          Input orientation:                          
 ---------------------------------------------------------------------
 Center     Atomic      Atomic             Coordinates (Angstroms)
 Number     Number       Type             X           Y           Z
 ---------------------------------------------------------------------
      1          1           0        7.730628   34.914070   35.822681
      2          6           0        8.620704   34.282025   35.890846
      3          1           0        9.494224   34.941523   35.939211
      4          1           0        8.674331   33.594054   35.026983
      5          1           0        8.561284   33.726441   36.831900
 ---------------------------------------------------------------------
                    Distance matrix (angstroms):
                    1          2          3          4          5
     1  H    0.000000
     2  C    1.093784   0.000000
     3  H    1.767655   1.095588   0.000000
     4  H    1.807250   1.105640   1.822103   0.000000
     5  H    1.766062   1.094435   1.773047   1.813293   0.000000
 Stoichiometry    CH4
 Framework group  C1[X(CH4)]
 Deg. of freedom     9
 Full point group                 C1      NOp   1
 Largest Abelian subgroup         C1      NOp   1
 Largest concise Abelian subgroup C1      NOp   1
                         Standard orientation:                         
 ---------------------------------------------------------------------
 Center     Atomic      Atomic             Coordinates (Angstroms)
 Number     Number       Type             X           Y           Z
 ---------------------------------------------------------------------
      1          1           0       -0.297313    0.087647    1.044550
      2          6           0        0.007350   -0.001515   -0.002156
      3          1           0       -0.499296   -0.877139   -0.422759
      4          1           0        1.106871   -0.088174   -0.079509
      5          1           0       -0.354358    0.886756   -0.529345
 ---------------------------------------------------------------------
 Rotational constants (GHZ):         160.3337174         154.5158564         153.8140894
 Standard basis: 6-31G(d) (6D, 7F)
 There are    23 symmetry adapted cartesian basis functions of A   symmetry.
 There are    23 symmetry adapted basis functions of A   symmetry.
    23 basis functions,    44 primitive gaussians,    23 cartesian basis functions
     5 alpha electrons        5 beta electrons
       nuclear repulsion energy        13.3461876739 Hartrees.
 NAtoms=    5 NActive=    5 NUniq=    5 SFac= 1.00D+00 NAtFMM=   60 NAOKFM=F Big=F
 Integral buffers will be    131072 words long.
 Raffenetti 2 integral format.
 Two-electron integral symmetry is turned on.
 One-electron integrals computed using PRISM.
 NBasis=    23 RedAO= T EigKep=  1.82D-02  NBF=    23
 NBsUse=    23 1.00D-06 EigRej= -1.00D+00 NBFU=    23
 ExpMin= 1.61D-01 ExpMax= 3.05D+03 ExpMxC= 4.57D+02 IAcc=3 IRadAn=         5 AccDes= 0.00D+00
 Harris functional with IExCor= 4538 and IRadAn=       5 diagonalized for initial guess.
 HarFok:  IExCor= 4538 AccDes= 0.00D+00 IRadAn=         5 IDoV= 1 UseB2=F ITyADJ=14
 ICtDFT=  3500011 ScaDFX=  1.000000  1.000000  1.000000  1.000000
 FoFCou: FMM=F IPFlag=           0 FMFlag=      100000 FMFlg1=           0
         NFxFlg=           0 DoJE=T BraDBF=F KetDBF=T FulRan=T
         wScrn=  0.000000 ICntrl=       500 IOpCl=  0 I1Cent=   200000004 NGrid=           0
         NMat0=    1 NMatS0=      1 NMatT0=    0 NMatD0=    1 NMtDS0=    0 NMtDT0=    0
 Petite list used in FoFCou.
 Keep R1 ints in memory in canonical form, NReq=1800744.
 Requested convergence on RMS density matrix=1.00D-08 within 128 cycles.
 Requested convergence on MAX density matrix=1.00D-06.
 Requested convergence on             energy=1.00D-06.
 No special actions if energy rises.
 Integral accuracy reduced to 1.0D-05 until final iterations.
 Initial convergence to 1.0D-05 achieved.  Increase integral accuracy.
 SCF Done:  E(RwB97X) =  -40.4991333295     A.U. after   11 cycles
            NFock= 11  Conv=0.17D-08     -V/T= 2.0116

 **********************************************************************

            Population analysis using the SCF density.

 **********************************************************************

 Orbital symmetries:
       Occupied  (A) (A) (A) (A) (A)
       Virtual   (A) (A) (A) (A) (A) (A) (A) (A) (A) (A) (A) (A)
                 (A) (A) (A) (A) (A) (A)
 The electronic state is 1-A.
 Alpha  occ. eigenvalues --  -10.25065  -0.81657  -0.49849  -0.49242  -0.49151
 Alpha virt. eigenvalues --    0.21532   0.27377   0.27438   0.27461   0.63874
 Alpha virt. eigenvalues --    0.63954   0.64715   1.01309   1.01519   1.01568
 Alpha virt. eigenvalues --    1.06749   1.20745   1.75842   1.75898   2.33249
 Alpha virt. eigenvalues --    2.35780   2.36110   4.30464
          Condensed to atoms (all electrons):
               1          2          3          4          5
     1  H    0.523766   0.384997  -0.026075  -0.022886  -0.026079
     2  C    0.384997   5.125264   0.385203   0.385294   0.385158
     3  H   -0.026075   0.385203   0.521511  -0.021584  -0.025611
     4  H   -0.022886   0.385294  -0.021584   0.514983  -0.022383
     5  H   -0.026079   0.385158  -0.025611  -0.022383   0.522408
 Mulliken charges:
               1
     1  H    0.166276
     2  C   -0.665916
     3  H    0.166556
     4  H    0.166575
     5  H    0.166508
 Sum of Mulliken charges =   0.00000
 Mulliken charges with hydrogens summed into heavy atoms:
               1
     2  C    0.000000
 Electronic spatial extent (au):  <R**2>=             35.6275
 Charge=              0.0000 electrons
 Dipole moment (field-independent basis, Debye):
    X=             -0.0374    Y=              0.0077    Z=              0.0104  Tot=              0.0395
 Quadrupole moment (field-independent basis, Debye-Ang):
   XX=             -8.1398   YY=             -8.3114   ZZ=             -8.3354
   XY=              0.0002   XZ=              0.0005   YZ=             -0.0002
 Traceless Quadrupole moment (field-independent basis, Debye-Ang):
   XX=              0.1225   YY=             -0.0492   ZZ=             -0.0732
   XY=              0.0002   XZ=              0.0005   YZ=             -0.0002
 Octapole moment (field-independent basis, Debye-Ang**2):
  XXX=              0.8230  YYY=              0.0355  ZZZ=              0.6698  XYY=             -0.5205
  XXY=             -0.1530  XXZ=             -0.1270  XZZ=             -0.4044  YZZ=              0.1389
  YYZ=             -0.5154  XYZ=             -0.0283
 Hexadecapole moment (field-independent basis, Debye-Ang**3):
 XXXX=            -15.0102 YYYY=            -15.0942 ZZZZ=            -14.9563 XXXY=             -0.0563
 XXXZ=             -0.0634 YYYX=              0.0999 YYYZ=             -0.0949 ZZZX=             -0.2818
 ZZZY=              0.0389 XXYY=             -5.2013 XXZZ=             -5.3287 YYZZ=             -5.0683
 XXYZ=              0.0565 YYXZ=              0.3473 ZZXY=             -0.0442
 N-N= 1.334618767385D+01 E-N=-1.196854108610D+02  KE= 4.003555537664D+01
 1\1\GINC-NODE67\SP\RwB97X\6-31G(d)\C1H4\YANZ\22-Sep-2023\0\\# 6-31g(d)
  wb97x\\tmpdir/M2_ref_123.gjf\\0,1\H,0,7.730628,34.91407,35.822681\C,0
 ,8.620704,34.282025,35.890846\H,0,9.494224,34.941523,35.939211\H,0,8.6
 7433092,33.59405388,35.02698289\H,0,8.561284,33.726441,36.8319\\Versio
 n=ES64L-G16RevA.03\State=1-A\HF=-40.4991333\RMSD=1.720e-09\Dipole=-0.0
 042682,0.0094988,0.0115575\Quadrupole=-0.0482173,0.0117884,0.0364288,0
 .0114624,0.0007094,0.065338\PG=C01 [X(C1H4)]\\@


 TOM, TOM, THE BURGLAR'S SON
 STOLE A MACHINE AND AWAY HE RUN
 THE JOB WAS NEAT, BUT TOM GOT BEAT
 BY THE TIME HE GOT HOME IT WAS OBSOLETE.
 Job cpu time:       0 days  0 hours  0 minutes  5.1 seconds.
 Elapsed time:       0 days  0 hours  0 minutes  2.6 seconds.
 File lengths (MBytes):  RWF=      6 Int=      0 D2E=      0 Chk=      1 Scr=      1
 Normal termination of Gaussian 16 at Fri Sep 22 16:29:57 2023.
