 Entering Gaussian System, Link 0=g16
 Initial command:
 /share/apps/gaussian/g16/l1.exe "/tmp/55568.mgr/Gau-353195.inp" -scrdir="/tmp/55568.mgr/"
 Entering Link 1 = /share/apps/gaussian/g16/l1.exe PID=    353196.
  
 Copyright (c) 1988,1990,1992,1993,1995,1998,2003,2009,2016,
            Gaussian, Inc.  All Rights Reserved.
  
 This is part of the Gaussian(R) 16 program.  It is based on
 the Gaussian(R) 09 system (copyright 2009, Gaussian, Inc.),
 the Gaussian(R) 03 system (copyright 2003, Gaussian, Inc.),
 the Gaussian(R) 98 system (copyright 1998, Gaussian, Inc.),
 the Gaussian(R) 94 system (copyright 1995, Gaussian, Inc.),
 the Gaussian 92(TM) system (copyright 1992, Gaussian, Inc.),
 the Gaussian 90(TM) system (copyright 1990, Gaussian, Inc.),
 the Gaussian 88(TM) system (copyright 1988, Gaussian, Inc.),
 the Gaussian 86(TM) system (copyright 1986, Carnegie Mellon
 University), and the Gaussian 82(TM) system (copyright 1983,
 Carnegie Mellon University). Gaussian is a federally registered
 trademark of Gaussian, Inc.
  
 This software contains proprietary and confidential information,
 including trade secrets, belonging to Gaussian, Inc.
  
 This software is provided under written license and may be
 used, copied, transmitted, or stored only in accord with that
 written license.
  
 The following legend is applicable only to US Government
 contracts under FAR:
  
                    RESTRICTED RIGHTS LEGEND
  
 Use, reproduction and disclosure by the US Government is
 subject to restrictions as set forth in subparagraphs (a)
 and (c) of the Commercial Computer Software - Restricted
 Rights clause in FAR 52.227-19.
  
 Gaussian, Inc.
 340 Quinnipiac St., Bldg. 40, Wallingford CT 06492
  
  
 ---------------------------------------------------------------
 Warning -- This program may not be used in any manner that
 competes with the business of Gaussian, Inc. or will provide
 assistance to any competitor of Gaussian, Inc.  The licensee
 of this program is prohibited from giving any competitor of
 Gaussian, Inc. access to this program.  By using this program,
 the user acknowledges that Gaussian, Inc. is engaged in the
 business of creating and licensing software in the field of
 computational chemistry and represents and warrants to the
 licensee that it is not a competitor of Gaussian, Inc. and that
 it will not use this program in any manner prohibited above.
 ---------------------------------------------------------------
  

 Cite this work as:
 Gaussian 16, Revision A.03,
 M. J. Frisch, G. W. Trucks, H. B. Schlegel, G. E. Scuseria, 
 M. A. Robb, J. R. Cheeseman, G. Scalmani, V. Barone, 
 G. A. Petersson, H. Nakatsuji, X. Li, M. Caricato, A. V. Marenich, 
 J. Bloino, B. G. Janesko, R. Gomperts, B. Mennucci, H. P. Hratchian, 
 J. V. Ortiz, A. F. Izmaylov, J. L. Sonnenberg, D. Williams-Young, 
 F. Ding, F. Lipparini, F. Egidi, J. Goings, B. Peng, A. Petrone, 
 T. Henderson, D. Ranasinghe, V. G. Zakrzewski, J. Gao, N. Rega, 
 G. Zheng, W. Liang, M. Hada, M. Ehara, K. Toyota, R. Fukuda, 
 J. Hasegawa, M. Ishida, T. Nakajima, Y. Honda, O. Kitao, H. Nakai, 
 T. Vreven, K. Throssell, J. A. Montgomery, Jr., J. E. Peralta, 
 F. Ogliaro, M. J. Bearpark, J. J. Heyd, E. N. Brothers, K. N. Kudin, 
 V. N. Staroverov, T. A. Keith, R. Kobayashi, J. Normand, 
 K. Raghavachari, A. P. Rendell, J. C. Burant, S. S. Iyengar, 
 J. Tomasi, M. Cossi, J. M. Millam, M. Klene, C. Adamo, R. Cammi, 
 J. W. Ochterski, R. L. Martin, K. Morokuma, O. Farkas, 
 J. B. Foresman, and D. J. Fox, Gaussian, Inc., Wallingford CT, 2016.
 
 ******************************************
 Gaussian 16:  ES64L-G16RevA.03 25-Dec-2016
                22-Sep-2023 
 ******************************************
 %nprocshared=2
 Will use up to    2 processors via shared memory.
 %mem=2GB
 ----------------
 # 6-31g(d) wb97x
 ----------------
 1/38=1,172=1/1;
 2/12=2,17=6,18=5,40=1/2;
 3/5=1,6=6,7=1,11=2,25=1,30=1,74=-57/1,2,3;
 4//1;
 5/5=2,38=5/2;
 6/7=2,8=2,9=2,10=2,28=1/1;
 99/5=1,9=1/99;
 --------------------
 tmpdir/M2_ref_26.gjf
 --------------------
 Symbolic Z-matrix:
 Charge =  1 Multiplicity = 1
 N                     8.47663   26.95206   37.43349 
 C                     8.00719   28.21102   36.75394 
 C                     9.13883   29.23301   36.62413 
 H                     9.38001   26.6152   36.95615 
 H                     8.66668   27.14314   38.42023 
 H                     7.74344   26.24082   37.40246 
 H                     7.16806   28.60906   37.35314 
 H                     7.68017   27.90277   35.75447 
 H                     10.06802   28.93908   36.00239 
 H                     8.73616   30.15225   36.12293 
 H                     9.46581   29.53373   37.63046 
 
                          Input orientation:                          
 ---------------------------------------------------------------------
 Center     Atomic      Atomic             Coordinates (Angstroms)
 Number     Number       Type             X           Y           Z
 ---------------------------------------------------------------------
      1          7           0        8.476632   26.952058   37.433493
      2          6           0        8.007186   28.211016   36.753941
      3          6           0        9.138830   29.233013   36.624130
      4          1           0        9.380009   26.615197   36.956153
      5          1           0        8.666679   27.143140   38.420234
      6          1           0        7.743438   26.240824   37.402460
      7          1           0        7.168058   28.609058   37.353136
      8          1           0        7.680165   27.902771   35.754467
      9          1           0       10.068022   28.939080   36.002387
     10          1           0        8.736157   30.152249   36.122931
     11          1           0        9.465810   29.533731   37.630456
 ---------------------------------------------------------------------
                    Distance matrix (angstroms):
                    1          2          3          4          5
     1  N    0.000000
     2  C    1.505704   0.000000
     3  C    2.509249   1.530342   0.000000
     4  H    1.075834   2.114751   2.649786   0.000000
     5  H    1.022882   2.086102   2.795798   1.712045   0.000000
     6  H    1.021954   2.090884   3.392066   1.737156   1.643901
     7  H    2.112930   1.105264   2.191965   3.004298   2.352335
     8  H    2.087425   1.095859   2.157211   2.447727   2.942204
     9  H    2.920419   2.311268   1.156010   2.604509   3.321920
    10  H    3.467874   2.167477   1.121758   3.690466   3.786445
    11  H    2.771697   2.155328   1.100018   2.996646   2.641455
                    6          7          8          9         10
     6  H    0.000000
     7  H    2.437628   0.000000
     8  H    2.341357   1.821219   0.000000
     9  H    3.826811   3.216089   2.614816   0.000000
    10  H    4.233430   2.520670   2.512178   1.805596   0.000000
    11  H    3.723142   2.492306   3.060701   1.834906   1.785382
                   11
    11  H    0.000000
 Stoichiometry    C2H8N(1+)
 Framework group  C1[X(C2H8N)]
 Deg. of freedom    27
 Full point group                 C1      NOp   1
 Largest Abelian subgroup         C1      NOp   1
 Largest concise Abelian subgroup C1      NOp   1
                         Standard orientation:                         
 ---------------------------------------------------------------------
 Center     Atomic      Atomic             Coordinates (Angstroms)
 Number     Number       Type             X           Y           Z
 ---------------------------------------------------------------------
      1          7           0       -1.210097   -0.252490    0.004419
      2          6           0        0.029937    0.601128   -0.023822
      3          6           0        1.299132   -0.253054    0.014442
      4          1           0       -1.121121   -1.020133   -0.744063
      5          1           0       -1.308296   -0.687611    0.924916
      6          1           0       -2.039393    0.326305   -0.142738
      7          1           0       -0.026268    1.283016    0.844209
      8          1           0       -0.010272    1.149066   -0.972007
      9          1           0        1.481001   -0.995497   -0.852773
     10          1           0        2.190342    0.428070    0.001902
     11          1           0        1.330265   -0.804231    0.965901
 ---------------------------------------------------------------------
 Rotational constants (GHZ):          29.3060152           8.2081011           7.2998367
 Standard basis: 6-31G(d) (6D, 7F)
 There are    61 symmetry adapted cartesian basis functions of A   symmetry.
 There are    61 symmetry adapted basis functions of A   symmetry.
    61 basis functions,   116 primitive gaussians,    61 cartesian basis functions
    13 alpha electrons       13 beta electrons
       nuclear repulsion energy        89.1787872447 Hartrees.
 NAtoms=   11 NActive=   11 NUniq=   11 SFac= 1.00D+00 NAtFMM=   60 NAOKFM=F Big=F
 Integral buffers will be    131072 words long.
 Raffenetti 2 integral format.
 Two-electron integral symmetry is turned on.
 One-electron integrals computed using PRISM.
 NBasis=    61 RedAO= T EigKep=  6.09D-03  NBF=    61
 NBsUse=    61 1.00D-06 EigRej= -1.00D+00 NBFU=    61
 ExpMin= 1.61D-01 ExpMax= 4.17D+03 ExpMxC= 6.27D+02 IAcc=3 IRadAn=         5 AccDes= 0.00D+00
 Harris functional with IExCor= 4538 and IRadAn=       5 diagonalized for initial guess.
 HarFok:  IExCor= 4538 AccDes= 0.00D+00 IRadAn=         5 IDoV= 1 UseB2=F ITyADJ=14
 ICtDFT=  3500011 ScaDFX=  1.000000  1.000000  1.000000  1.000000
 FoFCou: FMM=F IPFlag=           0 FMFlag=      100000 FMFlg1=           0
         NFxFlg=           0 DoJE=T BraDBF=F KetDBF=T FulRan=T
         wScrn=  0.000000 ICntrl=       500 IOpCl=  0 I1Cent=   200000004 NGrid=           0
         NMat0=    1 NMatS0=      1 NMatT0=    0 NMatD0=    1 NMtDS0=    0 NMtDT0=    0
 Petite list used in FoFCou.
 Keep R1 ints in memory in canonical form, NReq=5346468.
 Requested convergence on RMS density matrix=1.00D-08 within 128 cycles.
 Requested convergence on MAX density matrix=1.00D-06.
 Requested convergence on             energy=1.00D-06.
 No special actions if energy rises.
 Integral accuracy reduced to 1.0D-05 until final iterations.
 Initial convergence to 1.0D-05 achieved.  Increase integral accuracy.
 SCF Done:  E(RwB97X) =  -135.490021272     A.U. after   12 cycles
            NFock= 12  Conv=0.78D-08     -V/T= 2.0118

 **********************************************************************

            Population analysis using the SCF density.

 **********************************************************************

 Orbital symmetries:
       Occupied  (A) (A) (A) (A) (A) (A) (A) (A) (A) (A) (A) (A)
                 (A)
       Virtual   (A) (A) (A) (A) (A) (A) (A) (A) (A) (A) (A) (A)
                 (A) (A) (A) (A) (A) (A) (A) (A) (A) (A) (A) (A)
                 (A) (A) (A) (A) (A) (A) (A) (A) (A) (A) (A) (A)
                 (A) (A) (A) (A) (A) (A) (A) (A) (A) (A) (A) (A)
 The electronic state is 1-A.
 Alpha  occ. eigenvalues --  -14.75421 -10.53047 -10.45740  -1.34227  -1.08765
 Alpha  occ. eigenvalues --   -0.95732  -0.91008  -0.90176  -0.79772  -0.74897
 Alpha  occ. eigenvalues --   -0.68408  -0.66035  -0.64576
 Alpha virt. eigenvalues --   -0.07790  -0.01218  -0.00112   0.02059   0.05496
 Alpha virt. eigenvalues --    0.05642   0.07987   0.09713   0.10670   0.13958
 Alpha virt. eigenvalues --    0.40646   0.43234   0.44213   0.45937   0.52348
 Alpha virt. eigenvalues --    0.56101   0.60725   0.67184   0.70648   0.72286
 Alpha virt. eigenvalues --    0.73695   0.77008   0.79845   0.81465   0.84441
 Alpha virt. eigenvalues --    0.87201   0.89021   0.95105   1.27631   1.28921
 Alpha virt. eigenvalues --    1.32833   1.52831   1.59036   1.77486   1.78990
 Alpha virt. eigenvalues --    1.85242   1.90929   2.00998   2.11218   2.12161
 Alpha virt. eigenvalues --    2.19375   2.26098   2.28819   2.44085   2.55147
 Alpha virt. eigenvalues --    3.63258   4.09297   4.31002
          Condensed to atoms (all electrons):
               1          2          3          4          5          6
     1  N    6.794603   0.164369  -0.053247   0.296554   0.304181   0.308120
     2  C    0.164369   5.107892   0.335810  -0.019498  -0.017511  -0.017212
     3  C   -0.053247   0.335810   5.162579   0.000668  -0.000121   0.003017
     4  H    0.296554  -0.019498   0.000668   0.289829  -0.010898  -0.009041
     5  H    0.304181  -0.017511  -0.000121  -0.010898   0.290312  -0.012381
     6  H    0.308120  -0.017212   0.003017  -0.009041  -0.012381   0.279843
     7  H   -0.034309   0.392876  -0.028942   0.002855  -0.003011  -0.001033
     8  H   -0.036667   0.392799  -0.032687  -0.001969   0.003146  -0.002660
     9  H   -0.002578  -0.026888   0.376171   0.003640  -0.000147  -0.000023
    10  H    0.002828  -0.024382   0.380656  -0.000072  -0.000065  -0.000071
    11  H   -0.002452  -0.039188   0.382030  -0.000360   0.002909  -0.000051
               7          8          9         10         11
     1  N   -0.034309  -0.036667  -0.002578   0.002828  -0.002452
     2  C    0.392876   0.392799  -0.026888  -0.024382  -0.039188
     3  C   -0.028942  -0.032687   0.376171   0.380656   0.382030
     4  H    0.002855  -0.001969   0.003640  -0.000072  -0.000360
     5  H   -0.003011   0.003146  -0.000147  -0.000065   0.002909
     6  H   -0.001033  -0.002660  -0.000023  -0.000071  -0.000051
     7  H    0.434798  -0.018007   0.002322  -0.001782  -0.003301
     8  H   -0.018007   0.442536  -0.002282  -0.001919   0.003538
     9  H    0.002322  -0.002282   0.482248  -0.018121  -0.022464
    10  H   -0.001782  -0.001919  -0.018121   0.431382  -0.017261
    11  H   -0.003301   0.003538  -0.022464  -0.017261   0.492203
 Mulliken charges:
               1
     1  N   -0.741403
     2  C   -0.249067
     3  C   -0.525933
     4  H    0.448292
     5  H    0.443584
     6  H    0.451493
     7  H    0.257535
     8  H    0.254171
     9  H    0.208123
    10  H    0.248808
    11  H    0.204396
 Sum of Mulliken charges =   1.00000
 Mulliken charges with hydrogens summed into heavy atoms:
               1
     1  N    0.601967
     2  C    0.262639
     3  C    0.135394
 Electronic spatial extent (au):  <R**2>=            210.6712
 Charge=              1.0000 electrons
 Dipole moment (field-independent basis, Debye):
    X=             -3.9178    Y=             -0.7047    Z=              0.0072  Tot=              3.9807
 Quadrupole moment (field-independent basis, Debye-Ang):
   XX=             -8.8948   YY=            -15.9663   ZZ=            -16.2770
   XY=              1.3087   XZ=             -0.2984   YZ=              0.3363
 Traceless Quadrupole moment (field-independent basis, Debye-Ang):
   XX=              4.8179   YY=             -2.2536   ZZ=             -2.5643
   XY=              1.3087   XZ=             -0.2984   YZ=              0.3363
 Octapole moment (field-independent basis, Debye-Ang**2):
  XXX=            -16.5304  YYY=             -1.7873  ZZZ=              0.8370  XYY=             -3.9590
  XXY=             -0.2200  XXZ=             -0.2836  XZZ=             -4.5748  YZZ=             -1.9646
  YYZ=             -0.7449  XYZ=              0.3778
 Hexadecapole moment (field-independent basis, Debye-Ang**3):
 XXXX=           -128.3028 YYYY=            -53.2219 ZZZZ=            -31.0347 XXXY=              1.6657
 XXXZ=             -0.6335 YYYX=              4.2111 YYYZ=              2.0778 ZZZX=             -1.2650
 ZZZY=             -0.4670 XXYY=            -32.2783 XXZZ=            -30.3054 YYZZ=            -10.2423
 XXYZ=             -0.0934 YYXZ=              0.0827 ZZXY=              1.7981
 N-N= 8.917878724470D+01 E-N=-4.851749508557D+02  KE= 1.339161701466D+02
 1\1\GINC-NODE67\SP\RwB97X\6-31G(d)\C2H8N1(1+)\YANZ\22-Sep-2023\0\\# 6-
 31g(d) wb97x\\tmpdir/M2_ref_26.gjf\\1,1\N,0,8.476632,26.952058,37.4334
 93\C,0,8.007186,28.211016,36.753941\C,0,9.13883,29.233013,36.62413\H,0
 ,9.380009,26.615197,36.956153\H,0,8.666679,27.14314,38.420234\H,0,7.74
 3438,26.240824,37.40246\H,0,7.16805807,28.60905847,37.35313619\H,0,7.6
 80165,27.902771,35.754467\H,0,10.06802234,28.93908026,36.00238665\H,0,
 8.73615683,30.15224905,36.12293088\H,0,9.46581,29.533731,37.630456\\Ve
 rsion=ES64L-G16RevA.03\State=1-A\HF=-135.4900213\RMSD=7.805e-09\Dipole
 =-0.1473828,-1.4446875,0.5864381\Quadrupole=-1.6786597,2.7970648,-1.11
 84051,0.4137442,-0.4507279,-2.0914515\PG=C01 [X(C2H8N1)]\\@


 WE DON'T KNOW ONE MILLIONTH OF ONE PERCENT ABOUT
 ANYTHING.
                                     T. A. EDISON.
 Job cpu time:       0 days  0 hours  0 minutes 18.9 seconds.
 Elapsed time:       0 days  0 hours  0 minutes  9.5 seconds.
 File lengths (MBytes):  RWF=      6 Int=      0 D2E=      0 Chk=      1 Scr=      1
 Normal termination of Gaussian 16 at Fri Sep 22 16:29:29 2023.
