 Entering Gaussian System, Link 0=g16
 Initial command:
 /share/apps/gaussian/g16/l1.exe "/tmp/55568.mgr/Gau-352884.inp" -scrdir="/tmp/55568.mgr/"
 Entering Link 1 = /share/apps/gaussian/g16/l1.exe PID=    352885.
  
 Copyright (c) 1988,1990,1992,1993,1995,1998,2003,2009,2016,
            Gaussian, Inc.  All Rights Reserved.
  
 This is part of the Gaussian(R) 16 program.  It is based on
 the Gaussian(R) 09 system (copyright 2009, Gaussian, Inc.),
 the Gaussian(R) 03 system (copyright 2003, Gaussian, Inc.),
 the Gaussian(R) 98 system (copyright 1998, Gaussian, Inc.),
 the Gaussian(R) 94 system (copyright 1995, Gaussian, Inc.),
 the Gaussian 92(TM) system (copyright 1992, Gaussian, Inc.),
 the Gaussian 90(TM) system (copyright 1990, Gaussian, Inc.),
 the Gaussian 88(TM) system (copyright 1988, Gaussian, Inc.),
 the Gaussian 86(TM) system (copyright 1986, Carnegie Mellon
 University), and the Gaussian 82(TM) system (copyright 1983,
 Carnegie Mellon University). Gaussian is a federally registered
 trademark of Gaussian, Inc.
  
 This software contains proprietary and confidential information,
 including trade secrets, belonging to Gaussian, Inc.
  
 This software is provided under written license and may be
 used, copied, transmitted, or stored only in accord with that
 written license.
  
 The following legend is applicable only to US Government
 contracts under FAR:
  
                    RESTRICTED RIGHTS LEGEND
  
 Use, reproduction and disclosure by the US Government is
 subject to restrictions as set forth in subparagraphs (a)
 and (c) of the Commercial Computer Software - Restricted
 Rights clause in FAR 52.227-19.
  
 Gaussian, Inc.
 340 Quinnipiac St., Bldg. 40, Wallingford CT 06492
  
  
 ---------------------------------------------------------------
 Warning -- This program may not be used in any manner that
 competes with the business of Gaussian, Inc. or will provide
 assistance to any competitor of Gaussian, Inc.  The licensee
 of this program is prohibited from giving any competitor of
 Gaussian, Inc. access to this program.  By using this program,
 the user acknowledges that Gaussian, Inc. is engaged in the
 business of creating and licensing software in the field of
 computational chemistry and represents and warrants to the
 licensee that it is not a competitor of Gaussian, Inc. and that
 it will not use this program in any manner prohibited above.
 ---------------------------------------------------------------
  

 Cite this work as:
 Gaussian 16, Revision A.03,
 M. J. Frisch, G. W. Trucks, H. B. Schlegel, G. E. Scuseria, 
 M. A. Robb, J. R. Cheeseman, G. Scalmani, V. Barone, 
 G. A. Petersson, H. Nakatsuji, X. Li, M. Caricato, A. V. Marenich, 
 J. Bloino, B. G. Janesko, R. Gomperts, B. Mennucci, H. P. Hratchian, 
 J. V. Ortiz, A. F. Izmaylov, J. L. Sonnenberg, D. Williams-Young, 
 F. Ding, F. Lipparini, F. Egidi, J. Goings, B. Peng, A. Petrone, 
 T. Henderson, D. Ranasinghe, V. G. Zakrzewski, J. Gao, N. Rega, 
 G. Zheng, W. Liang, M. Hada, M. Ehara, K. Toyota, R. Fukuda, 
 J. Hasegawa, M. Ishida, T. Nakajima, Y. Honda, O. Kitao, H. Nakai, 
 T. Vreven, K. Throssell, J. A. Montgomery, Jr., J. E. Peralta, 
 F. Ogliaro, M. J. Bearpark, J. J. Heyd, E. N. Brothers, K. N. Kudin, 
 V. N. Staroverov, T. A. Keith, R. Kobayashi, J. Normand, 
 K. Raghavachari, A. P. Rendell, J. C. Burant, S. S. Iyengar, 
 J. Tomasi, M. Cossi, J. M. Millam, M. Klene, C. Adamo, R. Cammi, 
 J. W. Ochterski, R. L. Martin, K. Morokuma, O. Farkas, 
 J. B. Foresman, and D. J. Fox, Gaussian, Inc., Wallingford CT, 2016.
 
 ******************************************
 Gaussian 16:  ES64L-G16RevA.03 25-Dec-2016
                22-Sep-2023 
 ******************************************
 %nprocshared=2
 Will use up to    2 processors via shared memory.
 %mem=2GB
 ----------------
 # 6-31g(d) wb97x
 ----------------
 1/38=1,172=1/1;
 2/12=2,17=6,18=5,40=1/2;
 3/5=1,6=6,7=1,11=2,25=1,30=1,74=-57/1,2,3;
 4//1;
 5/5=2,38=5/2;
 6/7=2,8=2,9=2,10=2,28=1/1;
 99/5=1,9=1/99;
 -------------------
 tmpdir/M2_ref_4.gjf
 -------------------
 Symbolic Z-matrix:
 Charge =  0 Multiplicity = 1
 O                     4.62023   29.82145   38.61068 
 C                     5.22018   30.7165   37.97411 
 C                     6.5308    30.2011   37.31476 
 H                     5.01322   31.70134   37.81468 
 H                     6.76041   29.15855   37.50799 
 O                     7.23451   30.89358   36.68346 
 
                          Input orientation:                          
 ---------------------------------------------------------------------
 Center     Atomic      Atomic             Coordinates (Angstroms)
 Number     Number       Type             X           Y           Z
 ---------------------------------------------------------------------
      1          8           0        4.620231   29.821450   38.610678
      2          6           0        5.220175   30.716497   37.974112
      3          6           0        6.530805   30.201104   37.314760
      4          1           0        5.013218   31.701335   37.814680
      5          1           0        6.760409   29.158550   37.507986
      6          8           0        7.234508   30.893583   36.683465
 ---------------------------------------------------------------------
                    Distance matrix (angstroms):
                    1          2          3          4          5
     1  O    0.000000
     2  C    1.251502   0.000000
     3  C    2.339623   1.555032   0.000000
     4  H    2.078947   1.018900   2.191731   0.000000
     5  H    2.497144   2.239820   1.084884   3.100403   0.000000
     6  O    3.420244   2.398889   1.171862   2.620352   1.978623
                    6
     6  O    0.000000
 Stoichiometry    C2H2O2
 Framework group  C1[X(C2H2O2)]
 Deg. of freedom    12
 Full point group                 C1      NOp   1
 Largest Abelian subgroup         C1      NOp   1
 Largest concise Abelian subgroup C1      NOp   1
                         Standard orientation:                         
 ---------------------------------------------------------------------
 Center     Atomic      Atomic             Coordinates (Angstroms)
 Number     Number       Type             X           Y           Z
 ---------------------------------------------------------------------
      1          8           0       -1.692044   -0.227163    0.000257
      2          6           0       -0.662264    0.484042   -0.000142
      3          6           0        0.643802   -0.359930   -0.005385
      4          1           0       -0.525618    1.493722    0.005468
      5          1           0        0.493937   -1.434235    0.014201
      6          8           0        1.709851    0.126643    0.001431
 ---------------------------------------------------------------------
 Rotational constants (GHZ):          51.8494768           4.8903841           4.4689309
 Standard basis: 6-31G(d) (6D, 7F)
 There are    64 symmetry adapted cartesian basis functions of A   symmetry.
 There are    64 symmetry adapted basis functions of A   symmetry.
    64 basis functions,   120 primitive gaussians,    64 cartesian basis functions
    15 alpha electrons       15 beta electrons
       nuclear repulsion energy       102.1357862187 Hartrees.
 NAtoms=    6 NActive=    6 NUniq=    6 SFac= 1.00D+00 NAtFMM=   60 NAOKFM=F Big=F
 Integral buffers will be    131072 words long.
 Raffenetti 2 integral format.
 Two-electron integral symmetry is turned on.
 One-electron integrals computed using PRISM.
 NBasis=    64 RedAO= T EigKep=  4.60D-03  NBF=    64
 NBsUse=    64 1.00D-06 EigRej= -1.00D+00 NBFU=    64
 ExpMin= 1.61D-01 ExpMax= 5.48D+03 ExpMxC= 8.25D+02 IAcc=3 IRadAn=         5 AccDes= 0.00D+00
 Harris functional with IExCor= 4538 and IRadAn=       5 diagonalized for initial guess.
 HarFok:  IExCor= 4538 AccDes= 0.00D+00 IRadAn=         5 IDoV= 1 UseB2=F ITyADJ=14
 ICtDFT=  3500011 ScaDFX=  1.000000  1.000000  1.000000  1.000000
 FoFCou: FMM=F IPFlag=           0 FMFlag=      100000 FMFlg1=           0
         NFxFlg=           0 DoJE=T BraDBF=F KetDBF=T FulRan=T
         wScrn=  0.000000 ICntrl=       500 IOpCl=  0 I1Cent=   200000004 NGrid=           0
         NMat0=    1 NMatS0=      1 NMatT0=    0 NMatD0=    1 NMtDS0=    0 NMtDT0=    0
 Petite list used in FoFCou.
 Keep R1 ints in memory in canonical form, NReq=6104720.
 Requested convergence on RMS density matrix=1.00D-08 within 128 cycles.
 Requested convergence on MAX density matrix=1.00D-06.
 Requested convergence on             energy=1.00D-06.
 No special actions if energy rises.
 Integral accuracy reduced to 1.0D-05 until final iterations.
 Initial convergence to 1.0D-05 achieved.  Increase integral accuracy.
 SCF Done:  E(RwB97X) =  -227.743735736     A.U. after   16 cycles
            NFock= 16  Conv=0.53D-08     -V/T= 2.0081

 **********************************************************************

            Population analysis using the SCF density.

 **********************************************************************

 Orbital symmetries:
       Occupied  (A) (A) (A) (A) (A) (A) (A) (A) (A) (A) (A) (A)
                 (A) (A) (A)
       Virtual   (A) (A) (A) (A) (A) (A) (A) (A) (A) (A) (A) (A)
                 (A) (A) (A) (A) (A) (A) (A) (A) (A) (A) (A) (A)
                 (A) (A) (A) (A) (A) (A) (A) (A) (A) (A) (A) (A)
                 (A) (A) (A) (A) (A) (A) (A) (A) (A) (A) (A) (A)
                 (A)
 The electronic state is 1-A.
 Alpha  occ. eigenvalues --  -19.26062 -19.25145 -10.38900 -10.37938  -1.22564
 Alpha  occ. eigenvalues --   -1.18549  -0.83050  -0.73743  -0.61848  -0.59907
 Alpha  occ. eigenvalues --   -0.56696  -0.55807  -0.49417  -0.43534  -0.36221
 Alpha virt. eigenvalues --   -0.01273   0.12114   0.21810   0.24780   0.28719
 Alpha virt. eigenvalues --    0.37120   0.39834   0.59883   0.66663   0.68221
 Alpha virt. eigenvalues --    0.69212   0.72722   0.83212   0.89464   0.90972
 Alpha virt. eigenvalues --    0.94424   0.97602   1.04122   1.05489   1.08394
 Alpha virt. eigenvalues --    1.14423   1.17112   1.24074   1.42146   1.46596
 Alpha virt. eigenvalues --    1.55650   1.63325   1.66192   1.78109   1.80929
 Alpha virt. eigenvalues --    1.85436   1.90119   1.97373   2.04037   2.15751
 Alpha virt. eigenvalues --    2.24847   2.28552   2.37622   2.47449   2.59303
 Alpha virt. eigenvalues --    2.69733   2.90470   2.94823   3.05291   3.11876
 Alpha virt. eigenvalues --    3.80719   4.03602   4.13076   4.42438
          Condensed to atoms (all electrons):
               1          2          3          4          5          6
     1  O    7.989907   0.443211  -0.054400  -0.026742   0.015194   0.003377
     2  C    0.443211   4.887837   0.303212   0.341927  -0.090175  -0.062773
     3  C   -0.054400   0.303212   4.793459  -0.072836   0.357878   0.509717
     4  H   -0.026742   0.341927  -0.072836   0.543325   0.005190   0.013006
     5  H    0.015194  -0.090175   0.357878   0.005190   0.595670  -0.044826
     6  O    0.003377  -0.062773   0.509717   0.013006  -0.044826   7.907882
 Mulliken charges:
               1
     1  O   -0.370547
     2  C    0.176760
     3  C    0.162970
     4  H    0.196129
     5  H    0.161071
     6  O   -0.326383
 Sum of Mulliken charges =  -0.00000
 Mulliken charges with hydrogens summed into heavy atoms:
               1
     1  O   -0.370547
     2  C    0.372889
     3  C    0.324040
     6  O   -0.326383
 Electronic spatial extent (au):  <R**2>=            263.3646
 Charge=             -0.0000 electrons
 Dipole moment (field-independent basis, Debye):
    X=             -0.0180    Y=              0.5757    Z=             -0.0018  Tot=              0.5759
 Quadrupole moment (field-independent basis, Debye-Ang):
   XX=            -30.5724   YY=            -19.7201   ZZ=            -20.8200
   XY=             -2.3155   XZ=             -0.0050   YZ=             -0.0043
 Traceless Quadrupole moment (field-independent basis, Debye-Ang):
   XX=             -6.8682   YY=              3.9841   ZZ=              2.8842
   XY=             -2.3155   XZ=             -0.0050   YZ=             -0.0043
 Octapole moment (field-independent basis, Debye-Ang**2):
  XXX=              0.2789  YYY=              0.9513  ZZZ=              0.0076  XYY=             -0.0731
  XXY=              0.2869  XXZ=             -0.0248  XZZ=              0.1808  YZZ=              0.0531
  YYZ=              0.0339  XYZ=              0.0056
 Hexadecapole moment (field-independent basis, Debye-Ang**3):
 XXXX=           -262.6837 YYYY=            -43.7650 ZZZZ=            -16.5353 XXXY=              0.0443
 XXXZ=              0.0100 YYYX=             -0.7819 YYYZ=             -0.0291 ZZZX=              0.0113
 ZZZY=              0.0032 XXYY=            -46.8001 XXZZ=            -39.6539 YYZZ=            -10.9655
 XXYZ=              0.0027 YYXZ=              0.0099 ZZXY=              0.6550
 N-N= 1.021357862187D+02 E-N=-7.383257146851D+02  KE= 2.259250319204D+02
 1\1\GINC-NODE67\SP\RwB97X\6-31G(d)\C2H2O2\YANZ\22-Sep-2023\0\\# 6-31g(
 d) wb97x\\tmpdir/M2_ref_4.gjf\\0,1\O,0,4.620231,29.82145,38.610678\C,0
 ,5.220175,30.716497,37.974112\C,0,6.530805,30.201104,37.31476\H,0,5.01
 321762,31.70133534,37.81468013\H,0,6.76040861,29.15854963,37.50798617\
 O,0,7.23450825,30.89358339,36.68346476\\Version=ES64L-G16RevA.03\State
 =1-A\HF=-227.7437357\RMSD=5.323e-09\Dipole=-0.0776307,0.2122532,-0.016
 3352\Quadrupole=-1.5578366,1.8261077,-0.2682711,-2.6912252,3.0784778,1
 .7466194\PG=C01 [X(C2H2O2)]\\@


 IF YOU GET CONFUSED, LOGIC OUT YOUR DILEMMA

           --  PICKER X-RAY CORP.    DIGITAL PRINTER MANUAL CA. 1964
 Job cpu time:       0 days  0 hours  0 minutes 15.0 seconds.
 Elapsed time:       0 days  0 hours  0 minutes  7.6 seconds.
 File lengths (MBytes):  RWF=      6 Int=      0 D2E=      0 Chk=      1 Scr=      1
 Normal termination of Gaussian 16 at Fri Sep 22 16:29:16 2023.
