 Entering Gaussian System, Link 0=g16
 Initial command:
 /share/apps/gaussian/g16/l1.exe "/tmp/55568.mgr/Gau-353534.inp" -scrdir="/tmp/55568.mgr/"
 Entering Link 1 = /share/apps/gaussian/g16/l1.exe PID=    353535.
  
 Copyright (c) 1988,1990,1992,1993,1995,1998,2003,2009,2016,
            Gaussian, Inc.  All Rights Reserved.
  
 This is part of the Gaussian(R) 16 program.  It is based on
 the Gaussian(R) 09 system (copyright 2009, Gaussian, Inc.),
 the Gaussian(R) 03 system (copyright 2003, Gaussian, Inc.),
 the Gaussian(R) 98 system (copyright 1998, Gaussian, Inc.),
 the Gaussian(R) 94 system (copyright 1995, Gaussian, Inc.),
 the Gaussian 92(TM) system (copyright 1992, Gaussian, Inc.),
 the Gaussian 90(TM) system (copyright 1990, Gaussian, Inc.),
 the Gaussian 88(TM) system (copyright 1988, Gaussian, Inc.),
 the Gaussian 86(TM) system (copyright 1986, Carnegie Mellon
 University), and the Gaussian 82(TM) system (copyright 1983,
 Carnegie Mellon University). Gaussian is a federally registered
 trademark of Gaussian, Inc.
  
 This software contains proprietary and confidential information,
 including trade secrets, belonging to Gaussian, Inc.
  
 This software is provided under written license and may be
 used, copied, transmitted, or stored only in accord with that
 written license.
  
 The following legend is applicable only to US Government
 contracts under FAR:
  
                    RESTRICTED RIGHTS LEGEND
  
 Use, reproduction and disclosure by the US Government is
 subject to restrictions as set forth in subparagraphs (a)
 and (c) of the Commercial Computer Software - Restricted
 Rights clause in FAR 52.227-19.
  
 Gaussian, Inc.
 340 Quinnipiac St., Bldg. 40, Wallingford CT 06492
  
  
 ---------------------------------------------------------------
 Warning -- This program may not be used in any manner that
 competes with the business of Gaussian, Inc. or will provide
 assistance to any competitor of Gaussian, Inc.  The licensee
 of this program is prohibited from giving any competitor of
 Gaussian, Inc. access to this program.  By using this program,
 the user acknowledges that Gaussian, Inc. is engaged in the
 business of creating and licensing software in the field of
 computational chemistry and represents and warrants to the
 licensee that it is not a competitor of Gaussian, Inc. and that
 it will not use this program in any manner prohibited above.
 ---------------------------------------------------------------
  

 Cite this work as:
 Gaussian 16, Revision A.03,
 M. J. Frisch, G. W. Trucks, H. B. Schlegel, G. E. Scuseria, 
 M. A. Robb, J. R. Cheeseman, G. Scalmani, V. Barone, 
 G. A. Petersson, H. Nakatsuji, X. Li, M. Caricato, A. V. Marenich, 
 J. Bloino, B. G. Janesko, R. Gomperts, B. Mennucci, H. P. Hratchian, 
 J. V. Ortiz, A. F. Izmaylov, J. L. Sonnenberg, D. Williams-Young, 
 F. Ding, F. Lipparini, F. Egidi, J. Goings, B. Peng, A. Petrone, 
 T. Henderson, D. Ranasinghe, V. G. Zakrzewski, J. Gao, N. Rega, 
 G. Zheng, W. Liang, M. Hada, M. Ehara, K. Toyota, R. Fukuda, 
 J. Hasegawa, M. Ishida, T. Nakajima, Y. Honda, O. Kitao, H. Nakai, 
 T. Vreven, K. Throssell, J. A. Montgomery, Jr., J. E. Peralta, 
 F. Ogliaro, M. J. Bearpark, J. J. Heyd, E. N. Brothers, K. N. Kudin, 
 V. N. Staroverov, T. A. Keith, R. Kobayashi, J. Normand, 
 K. Raghavachari, A. P. Rendell, J. C. Burant, S. S. Iyengar, 
 J. Tomasi, M. Cossi, J. M. Millam, M. Klene, C. Adamo, R. Cammi, 
 J. W. Ochterski, R. L. Martin, K. Morokuma, O. Farkas, 
 J. B. Foresman, and D. J. Fox, Gaussian, Inc., Wallingford CT, 2016.
 
 ******************************************
 Gaussian 16:  ES64L-G16RevA.03 25-Dec-2016
                22-Sep-2023 
 ******************************************
 %nprocshared=2
 Will use up to    2 processors via shared memory.
 %mem=2GB
 ----------------
 # 6-31g(d) wb97x
 ----------------
 1/38=1,172=1/1;
 2/12=2,17=6,18=5,40=1/2;
 3/5=1,6=6,7=1,11=2,25=1,30=1,74=-57/1,2,3;
 4//1;
 5/5=2,38=5/2;
 6/7=2,8=2,9=2,10=2,28=1/1;
 99/5=1,9=1/99;
 --------------------
 tmpdir/M2_ref_44.gjf
 --------------------
 Symbolic Z-matrix:
 Charge =  0 Multiplicity = 1
 N                     10.32099   28.85906   35.83312 
 C                     9.13883   29.23301   36.62413 
 C                     8.58256   30.50288   35.93176 
 H                     10.80188   28.05905   35.72938 
 H                     10.76191   29.7006   35.47648 
 H                     8.31965   28.4932   36.7181 
 H                     9.46581   29.53373   37.63046 
 H                     7.67513   30.85302   36.41454 
 H                     9.46824   31.26495   35.94572 
 H                     8.38576   30.23446   34.87678 
 
                          Input orientation:                          
 ---------------------------------------------------------------------
 Center     Atomic      Atomic             Coordinates (Angstroms)
 Number     Number       Type             X           Y           Z
 ---------------------------------------------------------------------
      1          7           0       10.320992   28.859058   35.833119
      2          6           0        9.138830   29.233013   36.624130
      3          6           0        8.582564   30.502876   35.931757
      4          1           0       10.801885   28.059055   35.729378
      5          1           0       10.761911   29.700605   35.476478
      6          1           0        8.319649   28.493204   36.718098
      7          1           0        9.465810   29.533731   37.630456
      8          1           0        7.675128   30.853015   36.414543
      9          1           0        9.468244   31.264949   35.945716
     10          1           0        8.385764   30.234457   34.876776
 ---------------------------------------------------------------------
                    Distance matrix (angstroms):
                    1          2          3          4          5
     1  N    0.000000
     2  C    1.470730   0.000000
     3  C    2.394577   1.549634   0.000000
     4  H    0.939162   2.223625   3.307356   0.000000
     5  H    1.014792   2.042092   2.366531   1.661398   0.000000
     6  H    2.218651   1.107793   2.173992   2.706945   2.994008
     7  H    2.101652   1.100018   2.145913   2.752065   2.519394
     8  H    3.363706   2.193344   1.085873   4.248797   3.425820
     9  H    2.555028   2.167377   1.168495   3.478959   2.083490
    10  H    2.559575   2.150173   1.106239   3.361092   2.508130
                    6          7          8          9         10
     6  H    0.000000
     7  H    1.796880   0.000000
     8  H    2.465008   2.534856   0.000000
     9  H    3.098132   2.415672   1.898619   0.000000
    10  H    2.535114   3.039781   1.803426   1.837474   0.000000
 Stoichiometry    C2H7N
 Framework group  C1[X(C2H7N)]
 Deg. of freedom    24
 Full point group                 C1      NOp   1
 Largest Abelian subgroup         C1      NOp   1
 Largest concise Abelian subgroup C1      NOp   1
                         Standard orientation:                         
 ---------------------------------------------------------------------
 Center     Atomic      Atomic             Coordinates (Angstroms)
 Number     Number       Type             X           Y           Z
 ---------------------------------------------------------------------
      1          7           0       -1.190160   -0.261641   -0.046598
      2          6           0       -0.035066    0.643945    0.046784
      3          6           0        1.204318   -0.282247   -0.039582
      4          1           0       -2.091015   -0.137135   -0.281082
      5          1           0       -0.956136   -1.145194    0.394276
      6          1           0        0.064757    1.441209   -0.715851
      7          1           0       -0.023543    1.102490    1.046605
      8          1           0        2.128231    0.287845   -0.017217
      9          1           0        1.075950   -1.038681    0.841729
     10          1           0        1.117361   -0.849233   -0.985483
 ---------------------------------------------------------------------
 Rotational constants (GHZ):          29.6095756           9.5083280           8.0225258
 Standard basis: 6-31G(d) (6D, 7F)
 There are    59 symmetry adapted cartesian basis functions of A   symmetry.
 There are    59 symmetry adapted basis functions of A   symmetry.
    59 basis functions,   112 primitive gaussians,    59 cartesian basis functions
    13 alpha electrons       13 beta electrons
       nuclear repulsion energy        83.0864698732 Hartrees.
 NAtoms=   10 NActive=   10 NUniq=   10 SFac= 1.00D+00 NAtFMM=   60 NAOKFM=F Big=F
 Integral buffers will be    131072 words long.
 Raffenetti 2 integral format.
 Two-electron integral symmetry is turned on.
 One-electron integrals computed using PRISM.
 NBasis=    59 RedAO= T EigKep=  6.21D-03  NBF=    59
 NBsUse=    59 1.00D-06 EigRej= -1.00D+00 NBFU=    59
 ExpMin= 1.61D-01 ExpMax= 4.17D+03 ExpMxC= 6.27D+02 IAcc=3 IRadAn=         5 AccDes= 0.00D+00
 Harris functional with IExCor= 4538 and IRadAn=       5 diagonalized for initial guess.
 HarFok:  IExCor= 4538 AccDes= 0.00D+00 IRadAn=         5 IDoV= 1 UseB2=F ITyADJ=14
 ICtDFT=  3500011 ScaDFX=  1.000000  1.000000  1.000000  1.000000
 FoFCou: FMM=F IPFlag=           0 FMFlag=      100000 FMFlg1=           0
         NFxFlg=           0 DoJE=T BraDBF=F KetDBF=T FulRan=T
         wScrn=  0.000000 ICntrl=       500 IOpCl=  0 I1Cent=   200000004 NGrid=           0
         NMat0=    1 NMatS0=      1 NMatT0=    0 NMatD0=    1 NMtDS0=    0 NMtDT0=    0
 Petite list used in FoFCou.
 Keep R1 ints in memory in canonical form, NReq=4895189.
 Requested convergence on RMS density matrix=1.00D-08 within 128 cycles.
 Requested convergence on MAX density matrix=1.00D-06.
 Requested convergence on             energy=1.00D-06.
 No special actions if energy rises.
 Integral accuracy reduced to 1.0D-05 until final iterations.
 Initial convergence to 1.0D-05 achieved.  Increase integral accuracy.
 SCF Done:  E(RwB97X) =  -135.102758334     A.U. after   13 cycles
            NFock= 13  Conv=0.66D-08     -V/T= 2.0104

 **********************************************************************

            Population analysis using the SCF density.

 **********************************************************************

 Orbital symmetries:
       Occupied  (A) (A) (A) (A) (A) (A) (A) (A) (A) (A) (A) (A)
                 (A)
       Virtual   (A) (A) (A) (A) (A) (A) (A) (A) (A) (A) (A) (A)
                 (A) (A) (A) (A) (A) (A) (A) (A) (A) (A) (A) (A)
                 (A) (A) (A) (A) (A) (A) (A) (A) (A) (A) (A) (A)
                 (A) (A) (A) (A) (A) (A) (A) (A) (A) (A)
 The electronic state is 1-A.
 Alpha  occ. eigenvalues --  -14.36368 -10.29111 -10.26244  -0.99077  -0.84723
 Alpha  occ. eigenvalues --   -0.71970  -0.61809  -0.55465  -0.52314  -0.48268
 Alpha  occ. eigenvalues --   -0.45254  -0.43883  -0.30237
 Alpha virt. eigenvalues --    0.18628   0.22573   0.23701   0.26199   0.27673
 Alpha virt. eigenvalues --    0.28935   0.29281   0.34822   0.35083   0.63175
 Alpha virt. eigenvalues --    0.66803   0.68221   0.70605   0.76580   0.78891
 Alpha virt. eigenvalues --    0.86013   0.92265   0.96165   0.99114   1.00846
 Alpha virt. eigenvalues --    1.02945   1.07187   1.07504   1.09414   1.14107
 Alpha virt. eigenvalues --    1.20226   1.44775   1.52687   1.57492   1.76747
 Alpha virt. eigenvalues --    1.84403   2.00913   2.03746   2.11520   2.14898
 Alpha virt. eigenvalues --    2.22346   2.30695   2.38172   2.43519   2.47390
 Alpha virt. eigenvalues --    2.63658   2.73933   2.88368   3.92437   4.30106
 Alpha virt. eigenvalues --    4.54190
          Condensed to atoms (all electrons):
               1          2          3          4          5          6
     1  N    6.962008   0.302932  -0.071943   0.352038   0.339728  -0.030937
     2  C    0.302932   4.819532   0.372684  -0.019538  -0.041570   0.383631
     3  C   -0.071943   0.372684   5.131001   0.003643  -0.006163  -0.028477
     4  H    0.352038  -0.019538   0.003643   0.364659  -0.028285  -0.001433
     5  H    0.339728  -0.041570  -0.006163  -0.028285   0.417213   0.003878
     6  H   -0.030937   0.383631  -0.028477  -0.001433   0.003878   0.571716
     7  H   -0.061170   0.397513  -0.050759   0.000636   0.000299  -0.044943
     8  H    0.004497  -0.030204   0.373072  -0.000124   0.000138  -0.002701
     9  H   -0.006361  -0.039376   0.377159   0.000036   0.008486   0.004682
    10  H    0.005667  -0.038156   0.373882   0.000053   0.000159  -0.005180
               7          8          9         10
     1  N   -0.061170   0.004497  -0.006361   0.005667
     2  C    0.397513  -0.030204  -0.039376  -0.038156
     3  C   -0.050759   0.373072   0.377159   0.373882
     4  H    0.000636  -0.000124   0.000036   0.000053
     5  H    0.000299   0.000138   0.008486   0.000159
     6  H   -0.044943  -0.002701   0.004682  -0.005180
     7  H    0.622620   0.001724  -0.008043   0.005860
     8  H    0.001724   0.533062  -0.019045  -0.021685
     9  H   -0.008043  -0.019045   0.584457  -0.030327
    10  H    0.005860  -0.021685  -0.030327   0.541776
 Mulliken charges:
               1
     1  N   -0.796458
     2  C   -0.107449
     3  C   -0.474099
     4  H    0.328316
     5  H    0.306116
     6  H    0.149763
     7  H    0.136263
     8  H    0.161265
     9  H    0.128331
    10  H    0.167952
 Sum of Mulliken charges =  -0.00000
 Mulliken charges with hydrogens summed into heavy atoms:
               1
     1  N   -0.162026
     2  C    0.178577
     3  C   -0.016551
 Electronic spatial extent (au):  <R**2>=            203.0728
 Charge=             -0.0000 electrons
 Dipole moment (field-independent basis, Debye):
    X=             -0.1498    Y=             -0.0655    Z=              0.1729  Tot=              0.2379
 Quadrupole moment (field-independent basis, Debye-Ang):
   XX=            -18.9684   YY=            -19.6690   ZZ=            -21.4190
   XY=              0.8563   XZ=              0.1130   YZ=             -1.2181
 Traceless Quadrupole moment (field-independent basis, Debye-Ang):
   XX=              1.0504   YY=              0.3498   ZZ=             -1.4002
   XY=              0.8563   XZ=              0.1130   YZ=             -1.2181
 Octapole moment (field-independent basis, Debye-Ang**2):
  XXX=            -10.8997  YYY=             -1.8807  ZZZ=              0.0409  XYY=             -2.0940
  XXY=              0.3969  XXZ=             -2.1218  XZZ=             -0.1938  YZZ=             -0.1846
  YYZ=              0.4660  XYZ=              0.8849
 Hexadecapole moment (field-independent basis, Debye-Ang**3):
 XXXX=           -140.4670 YYYY=            -65.2684 ZZZZ=            -36.9148 XXXY=              6.4017
 XXXZ=              4.3696 YYYX=              3.7892 YYYZ=             -2.8831 ZZZX=             -0.4068
 ZZZY=             -0.5634 XXYY=            -37.8435 XXZZ=            -35.2837 YYZZ=            -16.0284
 XXYZ=             -0.8374 YYXZ=             -0.9773 ZZXY=             -0.2347
 N-N= 8.308646987323D+01 E-N=-4.792901355622D+02  KE= 1.337117098165D+02
 1\1\GINC-NODE67\SP\RwB97X\6-31G(d)\C2H7N1\YANZ\22-Sep-2023\0\\# 6-31g(
 d) wb97x\\tmpdir/M2_ref_44.gjf\\0,1\N,0,10.320992,28.859058,35.833119\
 C,0,9.13883,29.233013,36.62413\C,0,8.582564,30.502876,35.931757\H,0,10
 .80188461,28.05905496,35.7293776\H,0,10.761911,29.700605,35.476478\H,0
 ,8.31964875,28.49320368,36.71809837\H,0,9.46581,29.533731,37.630456\H,
 0,7.67512802,30.85301531,36.41454336\H,0,9.46824422,31.26494934,35.945
 71635\H,0,8.385764,30.234457,34.876776\\Version=ES64L-G16RevA.03\State
 =1-A\HF=-135.1027583\RMSD=6.615e-09\Dipole=0.0902528,0.0088347,0.02318
 34\Quadrupole=0.9153047,0.2451996,-1.1605043,-0.1243236,-0.9776761,-0.
 1396912\PG=C01 [X(C2H7N1)]\\@


 THERE IS AN OLD, OLD RECIPE IN MAINE FOR STEWING COOT. PLACE THE
 BIRD IN A KETTLE OF WATER WITH A RED BUILDING BRICK FREE OF MORTAR AND
 BLEMISHES. PARBOIL THE COOT AND BRICK TOGETHER FOR THREE HOURS.
 POUR OFF THE WATER, REFILL THE KETTLE, AND AGAIN PARBOIL FOR THREE HOURS.
 ONCE AGAIN POUR OFF THE WATER, FOR THE LAST TIME ADD FRESH WATER,
 AND LET THE COOT AND BRICK SIMMER TOGETHER OVERNIGHT. IN THE MORNING,
 THROW AWAY THE COOT AND EAT THE BRICK.
 Job cpu time:       0 days  0 hours  0 minutes 18.0 seconds.
 Elapsed time:       0 days  0 hours  0 minutes  9.1 seconds.
 File lengths (MBytes):  RWF=      6 Int=      0 D2E=      0 Chk=      1 Scr=      1
 Normal termination of Gaussian 16 at Fri Sep 22 16:29:43 2023.
