 Entering Gaussian System, Link 0=g16
 Initial command:
 /share/apps/gaussian/g16/l1.exe "/tmp/55568.mgr/Gau-353893.inp" -scrdir="/tmp/55568.mgr/"
 Entering Link 1 = /share/apps/gaussian/g16/l1.exe PID=    353894.
  
 Copyright (c) 1988,1990,1992,1993,1995,1998,2003,2009,2016,
            Gaussian, Inc.  All Rights Reserved.
  
 This is part of the Gaussian(R) 16 program.  It is based on
 the Gaussian(R) 09 system (copyright 2009, Gaussian, Inc.),
 the Gaussian(R) 03 system (copyright 2003, Gaussian, Inc.),
 the Gaussian(R) 98 system (copyright 1998, Gaussian, Inc.),
 the Gaussian(R) 94 system (copyright 1995, Gaussian, Inc.),
 the Gaussian 92(TM) system (copyright 1992, Gaussian, Inc.),
 the Gaussian 90(TM) system (copyright 1990, Gaussian, Inc.),
 the Gaussian 88(TM) system (copyright 1988, Gaussian, Inc.),
 the Gaussian 86(TM) system (copyright 1986, Carnegie Mellon
 University), and the Gaussian 82(TM) system (copyright 1983,
 Carnegie Mellon University). Gaussian is a federally registered
 trademark of Gaussian, Inc.
  
 This software contains proprietary and confidential information,
 including trade secrets, belonging to Gaussian, Inc.
  
 This software is provided under written license and may be
 used, copied, transmitted, or stored only in accord with that
 written license.
  
 The following legend is applicable only to US Government
 contracts under FAR:
  
                    RESTRICTED RIGHTS LEGEND
  
 Use, reproduction and disclosure by the US Government is
 subject to restrictions as set forth in subparagraphs (a)
 and (c) of the Commercial Computer Software - Restricted
 Rights clause in FAR 52.227-19.
  
 Gaussian, Inc.
 340 Quinnipiac St., Bldg. 40, Wallingford CT 06492
  
  
 ---------------------------------------------------------------
 Warning -- This program may not be used in any manner that
 competes with the business of Gaussian, Inc. or will provide
 assistance to any competitor of Gaussian, Inc.  The licensee
 of this program is prohibited from giving any competitor of
 Gaussian, Inc. access to this program.  By using this program,
 the user acknowledges that Gaussian, Inc. is engaged in the
 business of creating and licensing software in the field of
 computational chemistry and represents and warrants to the
 licensee that it is not a competitor of Gaussian, Inc. and that
 it will not use this program in any manner prohibited above.
 ---------------------------------------------------------------
  

 Cite this work as:
 Gaussian 16, Revision A.03,
 M. J. Frisch, G. W. Trucks, H. B. Schlegel, G. E. Scuseria, 
 M. A. Robb, J. R. Cheeseman, G. Scalmani, V. Barone, 
 G. A. Petersson, H. Nakatsuji, X. Li, M. Caricato, A. V. Marenich, 
 J. Bloino, B. G. Janesko, R. Gomperts, B. Mennucci, H. P. Hratchian, 
 J. V. Ortiz, A. F. Izmaylov, J. L. Sonnenberg, D. Williams-Young, 
 F. Ding, F. Lipparini, F. Egidi, J. Goings, B. Peng, A. Petrone, 
 T. Henderson, D. Ranasinghe, V. G. Zakrzewski, J. Gao, N. Rega, 
 G. Zheng, W. Liang, M. Hada, M. Ehara, K. Toyota, R. Fukuda, 
 J. Hasegawa, M. Ishida, T. Nakajima, Y. Honda, O. Kitao, H. Nakai, 
 T. Vreven, K. Throssell, J. A. Montgomery, Jr., J. E. Peralta, 
 F. Ogliaro, M. J. Bearpark, J. J. Heyd, E. N. Brothers, K. N. Kudin, 
 V. N. Staroverov, T. A. Keith, R. Kobayashi, J. Normand, 
 K. Raghavachari, A. P. Rendell, J. C. Burant, S. S. Iyengar, 
 J. Tomasi, M. Cossi, J. M. Millam, M. Klene, C. Adamo, R. Cammi, 
 J. W. Ochterski, R. L. Martin, K. Morokuma, O. Farkas, 
 J. B. Foresman, and D. J. Fox, Gaussian, Inc., Wallingford CT, 2016.
 
 ******************************************
 Gaussian 16:  ES64L-G16RevA.03 25-Dec-2016
                22-Sep-2023 
 ******************************************
 %nprocshared=2
 Will use up to    2 processors via shared memory.
 %mem=2GB
 ----------------
 # 6-31g(d) wb97x
 ----------------
 1/38=1,172=1/1;
 2/12=2,17=6,18=5,40=1/2;
 3/5=1,6=6,7=1,11=2,25=1,30=1,74=-57/1,2,3;
 4//1;
 5/5=2,38=5/2;
 6/7=2,8=2,9=2,10=2,28=1/1;
 99/5=1,9=1/99;
 --------------------
 tmpdir/M2_ref_92.gjf
 --------------------
 Symbolic Z-matrix:
 Charge =  0 Multiplicity = 1
 C                     12.27388   27.80505   34.86911 
 H                     12.50771   28.81831   34.53409 
 H                     11.35738   27.74095   35.45969 
 H                     12.17347   27.14941   33.99997 
 H                     13.10037   27.42272   35.47368 
 
                          Input orientation:                          
 ---------------------------------------------------------------------
 Center     Atomic      Atomic             Coordinates (Angstroms)
 Number     Number       Type             X           Y           Z
 ---------------------------------------------------------------------
      1          6           0       12.273880   27.805053   34.869110
      2          1           0       12.507711   28.818308   34.534092
      3          1           0       11.357380   27.740954   35.459690
      4          1           0       12.173475   27.149411   33.999970
      5          1           0       13.100371   27.422715   35.473677
 ---------------------------------------------------------------------
                    Distance matrix (angstroms):
                    1          2          3          4          5
     1  C    0.000000
     2  H    1.092520   0.000000
     3  H    1.092184   1.827754   0.000000
     4  H    1.093322   1.783877   1.773899   0.000000
     5  H    1.093056   1.783745   1.771861   1.762284   0.000000
 Stoichiometry    CH4
 Framework group  C1[X(CH4)]
 Deg. of freedom     9
 Full point group                 C1      NOp   1
 Largest Abelian subgroup         C1      NOp   1
 Largest concise Abelian subgroup C1      NOp   1
                         Standard orientation:                         
 ---------------------------------------------------------------------
 Center     Atomic      Atomic             Coordinates (Angstroms)
 Number     Number       Type             X           Y           Z
 ---------------------------------------------------------------------
      1          6           0       -0.003125   -0.004310   -0.008379
      2          1           0       -0.978477   -0.245953   -0.437213
      3          1           0        0.837604   -0.322267   -0.628818
      4          1           0        0.068111    1.075721    0.145925
      5          1           0        0.091513   -0.481638    0.970382
 ---------------------------------------------------------------------
 Rotational constants (GHZ):         161.5583280         155.6210126         155.4518104
 Standard basis: 6-31G(d) (6D, 7F)
 There are    23 symmetry adapted cartesian basis functions of A   symmetry.
 There are    23 symmetry adapted basis functions of A   symmetry.
    23 basis functions,    44 primitive gaussians,    23 cartesian basis functions
     5 alpha electrons        5 beta electrons
       nuclear repulsion energy        13.4021534900 Hartrees.
 NAtoms=    5 NActive=    5 NUniq=    5 SFac= 1.00D+00 NAtFMM=   60 NAOKFM=F Big=F
 Integral buffers will be    131072 words long.
 Raffenetti 2 integral format.
 Two-electron integral symmetry is turned on.
 One-electron integrals computed using PRISM.
 NBasis=    23 RedAO= T EigKep=  1.79D-02  NBF=    23
 NBsUse=    23 1.00D-06 EigRej= -1.00D+00 NBFU=    23
 ExpMin= 1.61D-01 ExpMax= 3.05D+03 ExpMxC= 4.57D+02 IAcc=3 IRadAn=         5 AccDes= 0.00D+00
 Harris functional with IExCor= 4538 and IRadAn=       5 diagonalized for initial guess.
 HarFok:  IExCor= 4538 AccDes= 0.00D+00 IRadAn=         5 IDoV= 1 UseB2=F ITyADJ=14
 ICtDFT=  3500011 ScaDFX=  1.000000  1.000000  1.000000  1.000000
 FoFCou: FMM=F IPFlag=           0 FMFlag=      100000 FMFlg1=           0
         NFxFlg=           0 DoJE=T BraDBF=F KetDBF=T FulRan=T
         wScrn=  0.000000 ICntrl=       500 IOpCl=  0 I1Cent=   200000004 NGrid=           0
         NMat0=    1 NMatS0=      1 NMatT0=    0 NMatD0=    1 NMtDS0=    0 NMtDT0=    0
 Petite list used in FoFCou.
 Keep R1 ints in memory in canonical form, NReq=1800744.
 Requested convergence on RMS density matrix=1.00D-08 within 128 cycles.
 Requested convergence on MAX density matrix=1.00D-06.
 Requested convergence on             energy=1.00D-06.
 No special actions if energy rises.
 Integral accuracy reduced to 1.0D-05 until final iterations.
 Initial convergence to 1.0D-05 achieved.  Increase integral accuracy.
 SCF Done:  E(RwB97X) =  -40.4991619780     A.U. after   11 cycles
            NFock= 11  Conv=0.24D-08     -V/T= 2.0110

 **********************************************************************

            Population analysis using the SCF density.

 **********************************************************************

 Orbital symmetries:
       Occupied  (A) (A) (A) (A) (A)
       Virtual   (A) (A) (A) (A) (A) (A) (A) (A) (A) (A) (A) (A)
                 (A) (A) (A) (A) (A) (A)
 The electronic state is 1-A.
 Alpha  occ. eigenvalues --  -10.24864  -0.81792  -0.50190  -0.49159  -0.49140
 Alpha virt. eigenvalues --    0.21659   0.27365   0.27477   0.27862   0.63788
 Alpha virt. eigenvalues --    0.63887   0.64476   1.01399   1.01575   1.02626
 Alpha virt. eigenvalues --    1.07247   1.20875   1.75657   1.75957   2.34280
 Alpha virt. eigenvalues --    2.36298   2.36362   4.30786
          Condensed to atoms (all electrons):
               1          2          3          4          5
     1  C    5.124303   0.386794   0.386428   0.385263   0.385249
     2  H    0.386794   0.513034  -0.020024  -0.024341  -0.024317
     3  H    0.386428  -0.020024   0.516133  -0.025232  -0.025434
     4  H    0.385263  -0.024341  -0.025232   0.524686  -0.025901
     5  H    0.385249  -0.024317  -0.025434  -0.025901   0.524873
 Mulliken charges:
               1
     1  C   -0.668038
     2  H    0.168855
     3  H    0.168128
     4  H    0.165525
     5  H    0.165529
 Sum of Mulliken charges =  -0.00000
 Mulliken charges with hydrogens summed into heavy atoms:
               1
     1  C   -0.000000
 Electronic spatial extent (au):  <R**2>=             35.4554
 Charge=              0.0000 electrons
 Dipole moment (field-independent basis, Debye):
    X=              0.0116    Y=              0.0156    Z=              0.0310  Tot=              0.0366
 Quadrupole moment (field-independent basis, Debye-Ang):
   XX=             -8.1127   YY=             -8.3208   ZZ=             -8.3169
   XY=              0.0008   XZ=              0.0007   YZ=              0.0069
 Traceless Quadrupole moment (field-independent basis, Debye-Ang):
   XX=              0.1374   YY=             -0.0706   ZZ=             -0.0668
   XY=              0.0008   XZ=              0.0007   YZ=              0.0069
 Octapole moment (field-independent basis, Debye-Ang**2):
  XXX=             -0.2563  YYY=              0.7923  ZZZ=              0.4690  XYY=              0.1017
  XXY=             -0.3449  XXZ=             -0.6348  XZZ=              0.1782  YZZ=             -0.4147
  YYZ=              0.2321  XYZ=              0.0242
 Hexadecapole moment (field-independent basis, Debye-Ang**3):
 XXXX=            -14.9838 YYYY=            -14.7992 ZZZZ=            -15.1220 XXXY=              0.0462
 XXXZ=              0.0439 YYYX=              0.0716 YYYZ=              0.1287 ZZZX=             -0.0444
 ZZZY=             -0.3675 XXYY=             -5.3418 XXZZ=             -4.9641 YYZZ=             -5.1217
 XXYZ=              0.2753 YYXZ=              0.0048 ZZXY=             -0.1127
 N-N= 1.340215349002D+01 E-N=-1.198142661821D+02  KE= 4.005930441205D+01
 1\1\GINC-NODE67\SP\RwB97X\6-31G(d)\C1H4\YANZ\22-Sep-2023\0\\# 6-31g(d)
  wb97x\\tmpdir/M2_ref_92.gjf\\0,1\C,0,12.27388,27.805053,34.86911\H,0,
 12.507711,28.818308,34.534092\H,0,11.35737952,27.74095434,35.45969022\
 H,0,12.173475,27.149411,33.99997\H,0,13.100371,27.422715,35.473677\\Ve
 rsion=ES64L-G16RevA.03\State=1-A\HF=-40.499162\RMSD=2.404e-09\Dipole=0
 .0063309,-0.0128622,-0.0011845\Quadrupole=-0.0048149,0.0219673,-0.0171
 523,0.0550246,-0.0449559,-0.0490948\PG=C01 [X(C1H4)]\\@


 THE ONLY DIFFERENCE BETWEEN ECCENTRICS AND JOGGERS
 IS THAT JOGGERS WEAR SWEATBANDS WHEN THEY RUN IN THE RAIN.
 Job cpu time:       0 days  0 hours  0 minutes  5.1 seconds.
 Elapsed time:       0 days  0 hours  0 minutes  2.6 seconds.
 File lengths (MBytes):  RWF=      6 Int=      0 D2E=      0 Chk=      1 Scr=      1
 Normal termination of Gaussian 16 at Fri Sep 22 16:29:50 2023.
