 Entering Gaussian System, Link 0=g16
 Initial command:
 /share/apps/gaussian/g16/l1.exe "/tmp/55568.mgr/Gau-352727.inp" -scrdir="/tmp/55568.mgr/"
 Entering Link 1 = /share/apps/gaussian/g16/l1.exe PID=    352742.
  
 Copyright (c) 1988,1990,1992,1993,1995,1998,2003,2009,2016,
            Gaussian, Inc.  All Rights Reserved.
  
 This is part of the Gaussian(R) 16 program.  It is based on
 the Gaussian(R) 09 system (copyright 2009, Gaussian, Inc.),
 the Gaussian(R) 03 system (copyright 2003, Gaussian, Inc.),
 the Gaussian(R) 98 system (copyright 1998, Gaussian, Inc.),
 the Gaussian(R) 94 system (copyright 1995, Gaussian, Inc.),
 the Gaussian 92(TM) system (copyright 1992, Gaussian, Inc.),
 the Gaussian 90(TM) system (copyright 1990, Gaussian, Inc.),
 the Gaussian 88(TM) system (copyright 1988, Gaussian, Inc.),
 the Gaussian 86(TM) system (copyright 1986, Carnegie Mellon
 University), and the Gaussian 82(TM) system (copyright 1983,
 Carnegie Mellon University). Gaussian is a federally registered
 trademark of Gaussian, Inc.
  
 This software contains proprietary and confidential information,
 including trade secrets, belonging to Gaussian, Inc.
  
 This software is provided under written license and may be
 used, copied, transmitted, or stored only in accord with that
 written license.
  
 The following legend is applicable only to US Government
 contracts under FAR:
  
                    RESTRICTED RIGHTS LEGEND
  
 Use, reproduction and disclosure by the US Government is
 subject to restrictions as set forth in subparagraphs (a)
 and (c) of the Commercial Computer Software - Restricted
 Rights clause in FAR 52.227-19.
  
 Gaussian, Inc.
 340 Quinnipiac St., Bldg. 40, Wallingford CT 06492
  
  
 ---------------------------------------------------------------
 Warning -- This program may not be used in any manner that
 competes with the business of Gaussian, Inc. or will provide
 assistance to any competitor of Gaussian, Inc.  The licensee
 of this program is prohibited from giving any competitor of
 Gaussian, Inc. access to this program.  By using this program,
 the user acknowledges that Gaussian, Inc. is engaged in the
 business of creating and licensing software in the field of
 computational chemistry and represents and warrants to the
 licensee that it is not a competitor of Gaussian, Inc. and that
 it will not use this program in any manner prohibited above.
 ---------------------------------------------------------------
  

 Cite this work as:
 Gaussian 16, Revision A.03,
 M. J. Frisch, G. W. Trucks, H. B. Schlegel, G. E. Scuseria, 
 M. A. Robb, J. R. Cheeseman, G. Scalmani, V. Barone, 
 G. A. Petersson, H. Nakatsuji, X. Li, M. Caricato, A. V. Marenich, 
 J. Bloino, B. G. Janesko, R. Gomperts, B. Mennucci, H. P. Hratchian, 
 J. V. Ortiz, A. F. Izmaylov, J. L. Sonnenberg, D. Williams-Young, 
 F. Ding, F. Lipparini, F. Egidi, J. Goings, B. Peng, A. Petrone, 
 T. Henderson, D. Ranasinghe, V. G. Zakrzewski, J. Gao, N. Rega, 
 G. Zheng, W. Liang, M. Hada, M. Ehara, K. Toyota, R. Fukuda, 
 J. Hasegawa, M. Ishida, T. Nakajima, Y. Honda, O. Kitao, H. Nakai, 
 T. Vreven, K. Throssell, J. A. Montgomery, Jr., J. E. Peralta, 
 F. Ogliaro, M. J. Bearpark, J. J. Heyd, E. N. Brothers, K. N. Kudin, 
 V. N. Staroverov, T. A. Keith, R. Kobayashi, J. Normand, 
 K. Raghavachari, A. P. Rendell, J. C. Burant, S. S. Iyengar, 
 J. Tomasi, M. Cossi, J. M. Millam, M. Klene, C. Adamo, R. Cammi, 
 J. W. Ochterski, R. L. Martin, K. Morokuma, O. Farkas, 
 J. B. Foresman, and D. J. Fox, Gaussian, Inc., Wallingford CT, 2016.
 
 ******************************************
 Gaussian 16:  ES64L-G16RevA.03 25-Dec-2016
                22-Sep-2023 
 ******************************************
 %nprocshared=2
 Will use up to    2 processors via shared memory.
 %mem=2GB
 ----------------
 # 6-31g(d) wb97x
 ----------------
 1/38=1,172=1/1;
 2/12=2,17=6,18=5,40=1/2;
 3/5=1,6=6,7=1,11=2,25=1,30=1,74=-57/1,2,3;
 4//1;
 5/5=2,38=5/2;
 6/7=2,8=2,9=2,10=2,28=1/1;
 99/5=1,9=1/99;
 --------------------
 tmpdir/M2_ref_21.gjf
 --------------------
 Symbolic Z-matrix:
 Charge =  0 Multiplicity = 1
 C                     8.00719   28.21102   36.75394 
 C                     9.13883   29.23301   36.62413 
 H                     7.16806   28.60906   37.35314 
 H                     8.37618   27.22146   37.28808 
 H                     7.68017   27.90277   35.75447 
 H                     10.06802   28.93908   36.00239 
 H                     8.73616   30.15225   36.12293 
 H                     9.46581   29.53373   37.63046 
 
                          Input orientation:                          
 ---------------------------------------------------------------------
 Center     Atomic      Atomic             Coordinates (Angstroms)
 Number     Number       Type             X           Y           Z
 ---------------------------------------------------------------------
      1          6           0        8.007186   28.211016   36.753941
      2          6           0        9.138830   29.233013   36.624130
      3          1           0        7.168058   28.609058   37.353136
      4          1           0        8.376176   27.221461   37.288076
      5          1           0        7.680165   27.902771   35.754467
      6          1           0       10.068022   28.939080   36.002387
      7          1           0        8.736157   30.152249   36.122931
      8          1           0        9.465810   29.533731   37.630456
 ---------------------------------------------------------------------
                    Distance matrix (angstroms):
                    1          2          3          4          5
     1  C    0.000000
     2  C    1.530342   0.000000
     3  H    1.105264   2.191965   0.000000
     4  H    1.183500   2.251401   1.840980   0.000000
     5  H    1.095859   2.157211   1.821219   1.816748   0.000000
     6  H    2.311268   1.156010   3.216089   2.732317   2.614816
     7  H    2.167477   1.121758   2.520670   3.174377   2.512178
     8  H    2.155328   1.100018   2.492306   2.578976   3.060701
                    6          7          8
     6  H    0.000000
     7  H    1.805596   0.000000
     8  H    1.834906   1.785382   0.000000
 Stoichiometry    C2H6
 Framework group  C1[X(C2H6)]
 Deg. of freedom    18
 Full point group                 C1      NOp   1
 Largest Abelian subgroup         C1      NOp   1
 Largest concise Abelian subgroup C1      NOp   1
                         Standard orientation:                         
 ---------------------------------------------------------------------
 Center     Atomic      Atomic             Coordinates (Angstroms)
 Number     Number       Type             X           Y           Z
 ---------------------------------------------------------------------
      1          6           0       -0.768158    0.000509   -0.018485
      2          6           0        0.761814   -0.000253    0.015159
      3          1           0       -1.172496    1.028572   -0.053217
      4          1           0       -1.222958   -0.518885    0.942795
      5          1           0       -1.112740   -0.598700   -0.868849
      6          1           0        1.304571   -1.020747    0.034340
      7          1           0        1.141112    0.510166   -0.908934
      8          1           0        1.100573    0.598059    0.873823
 ---------------------------------------------------------------------
 Rotational constants (GHZ):          76.1096507          19.6616772          19.5830219
 Standard basis: 6-31G(d) (6D, 7F)
 There are    42 symmetry adapted cartesian basis functions of A   symmetry.
 There are    42 symmetry adapted basis functions of A   symmetry.
    42 basis functions,    80 primitive gaussians,    42 cartesian basis functions
     9 alpha electrons        9 beta electrons
       nuclear repulsion energy        41.4923504814 Hartrees.
 NAtoms=    8 NActive=    8 NUniq=    8 SFac= 1.00D+00 NAtFMM=   60 NAOKFM=F Big=F
 Integral buffers will be    131072 words long.
 Raffenetti 2 integral format.
 Two-electron integral symmetry is turned on.
 One-electron integrals computed using PRISM.
 NBasis=    42 RedAO= T EigKep=  8.82D-03  NBF=    42
 NBsUse=    42 1.00D-06 EigRej= -1.00D+00 NBFU=    42
 ExpMin= 1.61D-01 ExpMax= 3.05D+03 ExpMxC= 4.57D+02 IAcc=3 IRadAn=         5 AccDes= 0.00D+00
 Harris functional with IExCor= 4538 and IRadAn=       5 diagonalized for initial guess.
 HarFok:  IExCor= 4538 AccDes= 0.00D+00 IRadAn=         5 IDoV= 1 UseB2=F ITyADJ=14
 ICtDFT=  3500011 ScaDFX=  1.000000  1.000000  1.000000  1.000000
 FoFCou: FMM=F IPFlag=           0 FMFlag=      100000 FMFlg1=           0
         NFxFlg=           0 DoJE=T BraDBF=F KetDBF=T FulRan=T
         wScrn=  0.000000 ICntrl=       500 IOpCl=  0 I1Cent=   200000004 NGrid=           0
         NMat0=    1 NMatS0=      1 NMatT0=    0 NMatD0=    1 NMtDS0=    0 NMtDT0=    0
 Petite list used in FoFCou.
 Keep R1 ints in memory in canonical form, NReq=2543288.
 Requested convergence on RMS density matrix=1.00D-08 within 128 cycles.
 Requested convergence on MAX density matrix=1.00D-06.
 Requested convergence on             energy=1.00D-06.
 No special actions if energy rises.
 Integral accuracy reduced to 1.0D-05 until final iterations.
 Initial convergence to 1.0D-05 achieved.  Increase integral accuracy.
 SCF Done:  E(RwB97X) =  -79.7927576633     A.U. after   12 cycles
            NFock= 12  Conv=0.21D-08     -V/T= 2.0136

 **********************************************************************

            Population analysis using the SCF density.

 **********************************************************************

 Orbital symmetries:
       Occupied  (A) (A) (A) (A) (A) (A) (A) (A) (A)
       Virtual   (A) (A) (A) (A) (A) (A) (A) (A) (A) (A) (A) (A)
                 (A) (A) (A) (A) (A) (A) (A) (A) (A) (A) (A) (A)
                 (A) (A) (A) (A) (A) (A) (A) (A) (A)
 The electronic state is 1-A.
 Alpha  occ. eigenvalues --  -10.26735 -10.26563  -0.87441  -0.72630  -0.54380
 Alpha  occ. eigenvalues --   -0.52859  -0.46921  -0.44189  -0.42735
 Alpha virt. eigenvalues --    0.19347   0.23844   0.24064   0.26273   0.27544
 Alpha virt. eigenvalues --    0.28899   0.33683   0.61795   0.65546   0.66006
 Alpha virt. eigenvalues --    0.73752   0.77060   0.78597   0.96461   0.98221
 Alpha virt. eigenvalues --    0.99496   1.00801   1.04121   1.07462   1.16611
 Alpha virt. eigenvalues --    1.52728   1.61417   1.64551   2.01840   2.05363
 Alpha virt. eigenvalues --    2.11295   2.31481   2.36537   2.39232   2.43719
 Alpha virt. eigenvalues --    2.69804   4.25248   4.47921
          Condensed to atoms (all electrons):
               1          2          3          4          5          6
     1  C    5.054835   0.349377   0.387390   0.377158   0.386765  -0.025046
     2  C    0.349377   5.062156  -0.033180  -0.032691  -0.037696   0.380625
     3  H    0.387390  -0.033180   0.539706  -0.027463  -0.024589   0.003046
     4  H    0.377158  -0.032691  -0.027463   0.579698  -0.028745  -0.002474
     5  H    0.386765  -0.037696  -0.024589  -0.028745   0.544911  -0.002473
     6  H   -0.025046   0.380625   0.003046  -0.002474  -0.002473   0.554359
     7  H   -0.038137   0.383633  -0.003437   0.003905  -0.003546  -0.030536
     8  H   -0.038166   0.386845  -0.003007  -0.003407   0.004333  -0.025687
               7          8
     1  C   -0.038137  -0.038166
     2  C    0.383633   0.386845
     3  H   -0.003437  -0.003007
     4  H    0.003905  -0.003407
     5  H   -0.003546   0.004333
     6  H   -0.030536  -0.025687
     7  H    0.566556  -0.028705
     8  H   -0.028705   0.549596
 Mulliken charges:
               1
     1  C   -0.454176
     2  C   -0.459070
     3  H    0.161535
     4  H    0.134020
     5  H    0.161039
     6  H    0.148185
     7  H    0.150268
     8  H    0.158198
 Sum of Mulliken charges =   0.00000
 Mulliken charges with hydrogens summed into heavy atoms:
               1
     1  C    0.002419
     2  C   -0.002419
 Electronic spatial extent (au):  <R**2>=            111.8189
 Charge=              0.0000 electrons
 Dipole moment (field-independent basis, Debye):
    X=              0.0136    Y=              0.0696    Z=             -0.0587  Tot=              0.0921
 Quadrupole moment (field-independent basis, Debye-Ang):
   XX=            -15.3865   YY=            -14.7260   ZZ=            -14.9396
   XY=             -0.1775   XZ=             -0.0261   YZ=              0.1267
 Traceless Quadrupole moment (field-independent basis, Debye-Ang):
   XX=             -0.3691   YY=              0.2914   ZZ=              0.0778
   XY=             -0.1775   XZ=             -0.0261   YZ=              0.1267
 Octapole moment (field-independent basis, Debye-Ang**2):
  XXX=              0.2712  YYY=              0.3272  ZZZ=             -0.1646  XYY=             -0.0316
  XXY=             -0.1871  XXZ=             -0.0302  XZZ=             -0.0347  YZZ=              0.0566
  YYZ=             -0.0842  XYZ=              0.0310
 Hexadecapole moment (field-independent basis, Debye-Ang**3):
 XXXX=            -95.1756 YYYY=            -29.8842 ZZZZ=            -29.7938 XXXY=             -0.8847
 XXXZ=             -0.0248 YYYX=             -1.6278 YYYZ=              0.3173 ZZZX=             -0.0267
 ZZZY=              0.2363 XXYY=            -19.1325 XXZZ=            -19.8542 YYZZ=             -9.8282
 XXYZ=              0.0552 YYXZ=              0.2624 ZZXY=              1.4397
 N-N= 4.149235048144D+01 E-N=-2.665398406053D+02  KE= 7.872556836169D+01
 1\1\GINC-NODE67\SP\RwB97X\6-31G(d)\C2H6\YANZ\22-Sep-2023\0\\# 6-31g(d)
  wb97x\\tmpdir/M2_ref_21.gjf\\0,1\C,0,8.007186,28.211016,36.753941\C,0
 ,9.13883,29.233013,36.62413\H,0,7.16805807,28.60905847,37.35313619\H,0
 ,8.37617572,27.22146116,37.28807635\H,0,7.680165,27.902771,35.754467\H
 ,0,10.06802234,28.93908026,36.00238665\H,0,8.73615683,30.15224905,36.1
 2293088\H,0,9.46581,29.533731,37.630456\\Version=ES64L-G16RevA.03\Stat
 e=1-A\HF=-79.7927577\RMSD=2.119e-09\Dipole=-0.0206053,0.029547,-0.0037
 424\Quadrupole=-0.0345086,-0.1776486,0.2121573,-0.1880023,-0.109414,0.
 0571385\PG=C01 [X(C2H6)]\\@


 THE SECRET OF SUCCESS IN LIFE IS TO EAT WHAT YOU LIKE, AND LET THE FOOD
 FIGHT IT OUT INSIDE YOU. -- FROM A FORTUNE COOKIE
 Job cpu time:       0 days  0 hours  0 minutes 11.9 seconds.
 Elapsed time:       0 days  0 hours  0 minutes  6.0 seconds.
 File lengths (MBytes):  RWF=      6 Int=      0 D2E=      0 Chk=      1 Scr=      1
 Normal termination of Gaussian 16 at Fri Sep 22 16:29:10 2023.
