 Entering Gaussian System, Link 0=g16
 Initial command:
 /share/apps/gaussian/g16/l1.exe "/tmp/55568.mgr/Gau-353551.inp" -scrdir="/tmp/55568.mgr/"
 Entering Link 1 = /share/apps/gaussian/g16/l1.exe PID=    353553.
  
 Copyright (c) 1988,1990,1992,1993,1995,1998,2003,2009,2016,
            Gaussian, Inc.  All Rights Reserved.
  
 This is part of the Gaussian(R) 16 program.  It is based on
 the Gaussian(R) 09 system (copyright 2009, Gaussian, Inc.),
 the Gaussian(R) 03 system (copyright 2003, Gaussian, Inc.),
 the Gaussian(R) 98 system (copyright 1998, Gaussian, Inc.),
 the Gaussian(R) 94 system (copyright 1995, Gaussian, Inc.),
 the Gaussian 92(TM) system (copyright 1992, Gaussian, Inc.),
 the Gaussian 90(TM) system (copyright 1990, Gaussian, Inc.),
 the Gaussian 88(TM) system (copyright 1988, Gaussian, Inc.),
 the Gaussian 86(TM) system (copyright 1986, Carnegie Mellon
 University), and the Gaussian 82(TM) system (copyright 1983,
 Carnegie Mellon University). Gaussian is a federally registered
 trademark of Gaussian, Inc.
  
 This software contains proprietary and confidential information,
 including trade secrets, belonging to Gaussian, Inc.
  
 This software is provided under written license and may be
 used, copied, transmitted, or stored only in accord with that
 written license.
  
 The following legend is applicable only to US Government
 contracts under FAR:
  
                    RESTRICTED RIGHTS LEGEND
  
 Use, reproduction and disclosure by the US Government is
 subject to restrictions as set forth in subparagraphs (a)
 and (c) of the Commercial Computer Software - Restricted
 Rights clause in FAR 52.227-19.
  
 Gaussian, Inc.
 340 Quinnipiac St., Bldg. 40, Wallingford CT 06492
  
  
 ---------------------------------------------------------------
 Warning -- This program may not be used in any manner that
 competes with the business of Gaussian, Inc. or will provide
 assistance to any competitor of Gaussian, Inc.  The licensee
 of this program is prohibited from giving any competitor of
 Gaussian, Inc. access to this program.  By using this program,
 the user acknowledges that Gaussian, Inc. is engaged in the
 business of creating and licensing software in the field of
 computational chemistry and represents and warrants to the
 licensee that it is not a competitor of Gaussian, Inc. and that
 it will not use this program in any manner prohibited above.
 ---------------------------------------------------------------
  

 Cite this work as:
 Gaussian 16, Revision A.03,
 M. J. Frisch, G. W. Trucks, H. B. Schlegel, G. E. Scuseria, 
 M. A. Robb, J. R. Cheeseman, G. Scalmani, V. Barone, 
 G. A. Petersson, H. Nakatsuji, X. Li, M. Caricato, A. V. Marenich, 
 J. Bloino, B. G. Janesko, R. Gomperts, B. Mennucci, H. P. Hratchian, 
 J. V. Ortiz, A. F. Izmaylov, J. L. Sonnenberg, D. Williams-Young, 
 F. Ding, F. Lipparini, F. Egidi, J. Goings, B. Peng, A. Petrone, 
 T. Henderson, D. Ranasinghe, V. G. Zakrzewski, J. Gao, N. Rega, 
 G. Zheng, W. Liang, M. Hada, M. Ehara, K. Toyota, R. Fukuda, 
 J. Hasegawa, M. Ishida, T. Nakajima, Y. Honda, O. Kitao, H. Nakai, 
 T. Vreven, K. Throssell, J. A. Montgomery, Jr., J. E. Peralta, 
 F. Ogliaro, M. J. Bearpark, J. J. Heyd, E. N. Brothers, K. N. Kudin, 
 V. N. Staroverov, T. A. Keith, R. Kobayashi, J. Normand, 
 K. Raghavachari, A. P. Rendell, J. C. Burant, S. S. Iyengar, 
 J. Tomasi, M. Cossi, J. M. Millam, M. Klene, C. Adamo, R. Cammi, 
 J. W. Ochterski, R. L. Martin, K. Morokuma, O. Farkas, 
 J. B. Foresman, and D. J. Fox, Gaussian, Inc., Wallingford CT, 2016.
 
 ******************************************
 Gaussian 16:  ES64L-G16RevA.03 25-Dec-2016
                22-Sep-2023 
 ******************************************
 %nprocshared=2
 Will use up to    2 processors via shared memory.
 %mem=2GB
 ----------------
 # 6-31g(d) wb97x
 ----------------
 1/38=1,172=1/1;
 2/12=2,17=6,18=5,40=1/2;
 3/5=1,6=6,7=1,11=2,25=1,30=1,74=-57/1,2,3;
 4//1;
 5/5=2,38=5/2;
 6/7=2,8=2,9=2,10=2,28=1/1;
 99/5=1,9=1/99;
 --------------------
 tmpdir/M2_ref_50.gjf
 --------------------
 Symbolic Z-matrix:
 Charge =  0 Multiplicity = 1
 C                     9.13883   29.23301   36.62413 
 N                     10.32099   28.85906   35.83312 
 H                     10.76191   29.7006   35.47648 
 H                     8.31965   28.4932   36.7181 
 H                     8.73616   30.15225   36.12293 
 H                     9.46581   29.53373   37.63046 
 H                     10.80188   28.05905   35.72938 
 
                          Input orientation:                          
 ---------------------------------------------------------------------
 Center     Atomic      Atomic             Coordinates (Angstroms)
 Number     Number       Type             X           Y           Z
 ---------------------------------------------------------------------
      1          6           0        9.138830   29.233013   36.624130
      2          7           0       10.320992   28.859058   35.833119
      3          1           0       10.761911   29.700605   35.476478
      4          1           0        8.319649   28.493204   36.718098
      5          1           0        8.736157   30.152249   36.122931
      6          1           0        9.465810   29.533731   37.630456
      7          1           0       10.801885   28.059055   35.729378
 ---------------------------------------------------------------------
                    Distance matrix (angstroms):
                    1          2          3          4          5
     1  C    0.000000
     2  N    1.470730   0.000000
     3  H    2.042092   1.014792   0.000000
     4  H    1.107793   2.218651   2.994008   0.000000
     5  H    1.121758   2.065923   2.173836   1.811114   0.000000
     6  H    1.100018   2.101652   2.519394   1.796880   1.785382
     7  H    2.223625   0.939162   1.661398   2.706945   2.967082
                    6          7
     6  H    0.000000
     7  H    2.752065   0.000000
 Stoichiometry    CH5N
 Framework group  C1[X(CH5N)]
 Deg. of freedom    15
 Full point group                 C1      NOp   1
 Largest Abelian subgroup         C1      NOp   1
 Largest concise Abelian subgroup C1      NOp   1
                         Standard orientation:                         
 ---------------------------------------------------------------------
 Center     Atomic      Atomic             Coordinates (Angstroms)
 Number     Number       Type             X           Y           Z
 ---------------------------------------------------------------------
      1          6           0       -0.725320   -0.020027    0.002954
      2          7           0        0.745102   -0.032411   -0.024529
      3          1           0        1.086625    0.921107    0.038464
      4          1           0       -1.262342   -0.863001   -0.474756
      5          1           0       -1.014931    0.930629   -0.517355
      6          1           0       -1.059992    0.071092    1.046856
      7          1           0        1.386847   -0.712788    0.060765
 ---------------------------------------------------------------------
 Rotational constants (GHZ):         109.2828499          22.3787372          21.0744474
 Standard basis: 6-31G(d) (6D, 7F)
 There are    40 symmetry adapted cartesian basis functions of A   symmetry.
 There are    40 symmetry adapted basis functions of A   symmetry.
    40 basis functions,    76 primitive gaussians,    40 cartesian basis functions
     9 alpha electrons        9 beta electrons
       nuclear repulsion energy        41.8949707790 Hartrees.
 NAtoms=    7 NActive=    7 NUniq=    7 SFac= 1.00D+00 NAtFMM=   60 NAOKFM=F Big=F
 Integral buffers will be    131072 words long.
 Raffenetti 2 integral format.
 Two-electron integral symmetry is turned on.
 One-electron integrals computed using PRISM.
 NBasis=    40 RedAO= T EigKep=  9.71D-03  NBF=    40
 NBsUse=    40 1.00D-06 EigRej= -1.00D+00 NBFU=    40
 ExpMin= 1.61D-01 ExpMax= 4.17D+03 ExpMxC= 6.27D+02 IAcc=3 IRadAn=         5 AccDes= 0.00D+00
 Harris functional with IExCor= 4538 and IRadAn=       5 diagonalized for initial guess.
 HarFok:  IExCor= 4538 AccDes= 0.00D+00 IRadAn=         5 IDoV= 1 UseB2=F ITyADJ=14
 ICtDFT=  3500011 ScaDFX=  1.000000  1.000000  1.000000  1.000000
 FoFCou: FMM=F IPFlag=           0 FMFlag=      100000 FMFlg1=           0
         NFxFlg=           0 DoJE=T BraDBF=F KetDBF=T FulRan=T
         wScrn=  0.000000 ICntrl=       500 IOpCl=  0 I1Cent=   200000004 NGrid=           0
         NMat0=    1 NMatS0=      1 NMatT0=    0 NMatD0=    1 NMtDS0=    0 NMtDT0=    0
 Petite list used in FoFCou.
 Keep R1 ints in memory in canonical form, NReq=2399831.
 Requested convergence on RMS density matrix=1.00D-08 within 128 cycles.
 Requested convergence on MAX density matrix=1.00D-06.
 Requested convergence on             energy=1.00D-06.
 No special actions if energy rises.
 Integral accuracy reduced to 1.0D-05 until final iterations.
 Initial convergence to 1.0D-05 achieved.  Increase integral accuracy.
 SCF Done:  E(RwB97X) =  -95.8013271705     A.U. after   12 cycles
            NFock= 12  Conv=0.83D-08     -V/T= 2.0099

 **********************************************************************

            Population analysis using the SCF density.

 **********************************************************************

 Orbital symmetries:
       Occupied  (A) (A) (A) (A) (A) (A) (A) (A) (A)
       Virtual   (A) (A) (A) (A) (A) (A) (A) (A) (A) (A) (A) (A)
                 (A) (A) (A) (A) (A) (A) (A) (A) (A) (A) (A) (A)
                 (A) (A) (A) (A) (A) (A) (A)
 The electronic state is 1-A.
 Alpha  occ. eigenvalues --  -14.36386 -10.28733  -0.98145  -0.78101  -0.60809
 Alpha  occ. eigenvalues --   -0.52685  -0.51374  -0.47042  -0.30023
 Alpha virt. eigenvalues --    0.19409   0.23630   0.25228   0.28134   0.31118
 Alpha virt. eigenvalues --    0.34527   0.64595   0.68305   0.70137   0.86054
 Alpha virt. eigenvalues --    0.87814   0.93033   0.98504   0.99892   1.06971
 Alpha virt. eigenvalues --    1.08779   1.11565   1.16711   1.43782   1.58986
 Alpha virt. eigenvalues --    1.80122   1.95377   2.09088   2.17097   2.31544
 Alpha virt. eigenvalues --    2.39950   2.45631   2.65190   2.80226   3.90446
 Alpha virt. eigenvalues --    4.37619
          Condensed to atoms (all electrons):
               1          2          3          4          5          6
     1  C    4.888872   0.295495  -0.036984   0.384877   0.392656   0.394227
     2  N    0.295495   6.935522   0.345821  -0.028125  -0.042103  -0.063798
     3  H   -0.036984   0.345821   0.410404   0.003303  -0.006933   0.000614
     4  H    0.384877  -0.028125   0.003303   0.543118  -0.021374  -0.039859
     5  H    0.392656  -0.042103  -0.006933  -0.021374   0.566935  -0.041168
     6  H    0.394227  -0.063798   0.000614  -0.039859  -0.041168   0.605563
     7  H   -0.022139   0.355369  -0.028332  -0.001782   0.003146   0.000524
               7
     1  C   -0.022139
     2  N    0.355369
     3  H   -0.028332
     4  H   -0.001782
     5  H    0.003146
     6  H    0.000524
     7  H    0.362713
 Mulliken charges:
               1
     1  C   -0.297005
     2  N   -0.798181
     3  H    0.312107
     4  H    0.159842
     5  H    0.148840
     6  H    0.143897
     7  H    0.330501
 Sum of Mulliken charges =   0.00000
 Mulliken charges with hydrogens summed into heavy atoms:
               1
     1  C    0.155573
     2  N   -0.155573
 Electronic spatial extent (au):  <R**2>=             95.6470
 Charge=              0.0000 electrons
 Dipole moment (field-independent basis, Debye):
    X=              0.1609    Y=              0.2016    Z=              0.2454  Tot=              0.3560
 Quadrupole moment (field-independent basis, Debye-Ang):
   XX=            -12.2873   YY=            -12.0778   ZZ=            -15.5461
   XY=              0.0041   XZ=              0.6251   YZ=             -0.0081
 Traceless Quadrupole moment (field-independent basis, Debye-Ang):
   XX=              1.0164   YY=              1.2259   ZZ=             -2.2423
   XY=              0.0041   XZ=              0.6251   YZ=             -0.0081
 Octapole moment (field-independent basis, Debye-Ang**2):
  XXX=              5.8989  YYY=              0.6463  ZZZ=              0.6943  XYY=              2.6068
  XXY=             -1.0311  XXZ=              0.2055  XZZ=             -0.5953  YZZ=              0.0958
  YYZ=             -0.3771  XYZ=             -0.1639
 Hexadecapole moment (field-independent basis, Debye-Ang**3):
 XXXX=            -70.2825 YYYY=            -22.1581 ZZZZ=            -22.2400 XXXY=             -1.0986
 XXXZ=              1.3999 YYYX=              0.3607 YYYZ=             -0.0906 ZZZX=              0.1018
 ZZZY=              0.0498 XXYY=            -13.2779 XXZZ=            -17.3076 YYZZ=             -7.6987
 XXYZ=              0.1794 YYXZ=              0.9274 ZZXY=             -0.0637
 N-N= 4.189497077897D+01 E-N=-3.062327647561D+02  KE= 9.486522702307D+01
 1\1\GINC-NODE67\SP\RwB97X\6-31G(d)\C1H5N1\YANZ\22-Sep-2023\0\\# 6-31g(
 d) wb97x\\tmpdir/M2_ref_50.gjf\\0,1\C,0,9.13883,29.233013,36.62413\N,0
 ,10.320992,28.859058,35.833119\H,0,10.761911,29.700605,35.476478\H,0,8
 .31964875,28.49320368,36.71809837\H,0,8.73615683,30.15224905,36.122930
 88\H,0,9.46581,29.533731,37.630456\H,0,10.80188461,28.05905496,35.7293
 776\\Version=ES64L-G16RevA.03\State=1-A\HF=-95.8013272\RMSD=8.292e-09\
 Dipole=0.116547,0.0730033,0.0266023\Quadrupole=0.4168453,0.8298635,-1.
 2467088,-0.1690552,-0.9476002,-0.4143428\PG=C01 [X(C1H5N1)]\\@


 THE PROGRESS OF RIVERS TO THE SEA IS NOT AS RAPID
 AS THAT OF MAN TO ERROR.
                                              -- VOLTAIRE
 Job cpu time:       0 days  0 hours  0 minutes  9.2 seconds.
 Elapsed time:       0 days  0 hours  0 minutes  4.7 seconds.
 File lengths (MBytes):  RWF=      6 Int=      0 D2E=      0 Chk=      1 Scr=      1
 Normal termination of Gaussian 16 at Fri Sep 22 16:29:39 2023.
