 Entering Gaussian System, Link 0=g16
 Initial command:
 /share/apps/gaussian/g16/l1.exe "/tmp/55568.mgr/Gau-353526.inp" -scrdir="/tmp/55568.mgr/"
 Entering Link 1 = /share/apps/gaussian/g16/l1.exe PID=    353527.
  
 Copyright (c) 1988,1990,1992,1993,1995,1998,2003,2009,2016,
            Gaussian, Inc.  All Rights Reserved.
  
 This is part of the Gaussian(R) 16 program.  It is based on
 the Gaussian(R) 09 system (copyright 2009, Gaussian, Inc.),
 the Gaussian(R) 03 system (copyright 2003, Gaussian, Inc.),
 the Gaussian(R) 98 system (copyright 1998, Gaussian, Inc.),
 the Gaussian(R) 94 system (copyright 1995, Gaussian, Inc.),
 the Gaussian 92(TM) system (copyright 1992, Gaussian, Inc.),
 the Gaussian 90(TM) system (copyright 1990, Gaussian, Inc.),
 the Gaussian 88(TM) system (copyright 1988, Gaussian, Inc.),
 the Gaussian 86(TM) system (copyright 1986, Carnegie Mellon
 University), and the Gaussian 82(TM) system (copyright 1983,
 Carnegie Mellon University). Gaussian is a federally registered
 trademark of Gaussian, Inc.
  
 This software contains proprietary and confidential information,
 including trade secrets, belonging to Gaussian, Inc.
  
 This software is provided under written license and may be
 used, copied, transmitted, or stored only in accord with that
 written license.
  
 The following legend is applicable only to US Government
 contracts under FAR:
  
                    RESTRICTED RIGHTS LEGEND
  
 Use, reproduction and disclosure by the US Government is
 subject to restrictions as set forth in subparagraphs (a)
 and (c) of the Commercial Computer Software - Restricted
 Rights clause in FAR 52.227-19.
  
 Gaussian, Inc.
 340 Quinnipiac St., Bldg. 40, Wallingford CT 06492
  
  
 ---------------------------------------------------------------
 Warning -- This program may not be used in any manner that
 competes with the business of Gaussian, Inc. or will provide
 assistance to any competitor of Gaussian, Inc.  The licensee
 of this program is prohibited from giving any competitor of
 Gaussian, Inc. access to this program.  By using this program,
 the user acknowledges that Gaussian, Inc. is engaged in the
 business of creating and licensing software in the field of
 computational chemistry and represents and warrants to the
 licensee that it is not a competitor of Gaussian, Inc. and that
 it will not use this program in any manner prohibited above.
 ---------------------------------------------------------------
  

 Cite this work as:
 Gaussian 16, Revision A.03,
 M. J. Frisch, G. W. Trucks, H. B. Schlegel, G. E. Scuseria, 
 M. A. Robb, J. R. Cheeseman, G. Scalmani, V. Barone, 
 G. A. Petersson, H. Nakatsuji, X. Li, M. Caricato, A. V. Marenich, 
 J. Bloino, B. G. Janesko, R. Gomperts, B. Mennucci, H. P. Hratchian, 
 J. V. Ortiz, A. F. Izmaylov, J. L. Sonnenberg, D. Williams-Young, 
 F. Ding, F. Lipparini, F. Egidi, J. Goings, B. Peng, A. Petrone, 
 T. Henderson, D. Ranasinghe, V. G. Zakrzewski, J. Gao, N. Rega, 
 G. Zheng, W. Liang, M. Hada, M. Ehara, K. Toyota, R. Fukuda, 
 J. Hasegawa, M. Ishida, T. Nakajima, Y. Honda, O. Kitao, H. Nakai, 
 T. Vreven, K. Throssell, J. A. Montgomery, Jr., J. E. Peralta, 
 F. Ogliaro, M. J. Bearpark, J. J. Heyd, E. N. Brothers, K. N. Kudin, 
 V. N. Staroverov, T. A. Keith, R. Kobayashi, J. Normand, 
 K. Raghavachari, A. P. Rendell, J. C. Burant, S. S. Iyengar, 
 J. Tomasi, M. Cossi, J. M. Millam, M. Klene, C. Adamo, R. Cammi, 
 J. W. Ochterski, R. L. Martin, K. Morokuma, O. Farkas, 
 J. B. Foresman, and D. J. Fox, Gaussian, Inc., Wallingford CT, 2016.
 
 ******************************************
 Gaussian 16:  ES64L-G16RevA.03 25-Dec-2016
                22-Sep-2023 
 ******************************************
 %nprocshared=2
 Will use up to    2 processors via shared memory.
 %mem=2GB
 ----------------
 # 6-31g(d) wb97x
 ----------------
 1/38=1,172=1/1;
 2/12=2,17=6,18=5,40=1/2;
 3/5=1,6=6,7=1,11=2,25=1,30=1,74=-57/1,2,3;
 4//1;
 5/5=2,38=5/2;
 6/7=2,8=2,9=2,10=2,28=1/1;
 99/5=1,9=1/99;
 --------------------
 tmpdir/M2_ref_73.gjf
 --------------------
 Symbolic Z-matrix:
 Charge =  0 Multiplicity = 1
 C                     8.69479   33.33164   34.69748 
 C                     9.79769   32.27465   34.79924 
 C                     11.19649   32.87936   34.87472 
 H                     8.64116   34.01961   35.56134 
 H                     7.731     32.82662   34.56492 
 H                     8.86706   33.89626   33.77136 
 H                     9.68564   31.58194   35.7431 
 H                     9.74144   31.63216   33.9002 
 H                     12.00723   32.12931   34.84221 
 H                     11.27855   33.46883   35.79478 
 H                     11.30452   33.57944   34.03695 
 
                          Input orientation:                          
 ---------------------------------------------------------------------
 Center     Atomic      Atomic             Coordinates (Angstroms)
 Number     Number       Type             X           Y           Z
 ---------------------------------------------------------------------
      1          6           0        8.694786   33.331639   34.697477
      2          6           0        9.797688   32.274648   34.799237
      3          6           0       11.196489   32.879363   34.874723
      4          1           0        8.641159   34.019610   35.561340
      5          1           0        7.730997   32.826618   34.564923
      6          1           0        8.867058   33.896258   33.771357
      7          1           0        9.685642   31.581937   35.743097
      8          1           0        9.741440   31.632164   33.900198
      9          1           0       12.007234   32.129311   34.842209
     10          1           0       11.278550   33.468826   35.794783
     11          1           0       11.304517   33.579445   34.036954
 ---------------------------------------------------------------------
                    Distance matrix (angstroms):
                    1          2          3          4          5
     1  C    0.000000
     2  C    1.531006   0.000000
     3  C    2.548428   1.525786   0.000000
     4  H    1.105640   2.227836   2.881201   0.000000
     5  H    1.096132   2.151926   3.479712   1.801242   0.000000
     6  H    1.098258   2.133595   2.770874   1.808393   1.750575
     7  H    2.266401   1.176127   2.172567   2.658238   2.599608
     8  H    2.149268   1.106445   2.149970   3.109648   2.431144
     9  H    3.526876   2.214738   1.104963   3.926938   4.341581
    10  H    2.810469   2.147120   1.095770   2.704383   3.809215
    11  H    2.703404   2.134035   1.097106   3.100157   3.689925
                    6          7          8          9         10
     6  H    0.000000
     7  H    3.148638   0.000000
     8  H    2.430487   1.844428   0.000000
     9  H    3.758927   2.549707   2.503670   0.000000
    10  H    3.176829   2.469894   3.053766   1.797965   0.000000
    11  H    2.472270   3.085728   2.500763   1.801426   1.761498
                   11
    11  H    0.000000
 Stoichiometry    C3H8
 Framework group  C1[X(C3H8)]
 Deg. of freedom    27
 Full point group                 C1      NOp   1
 Largest Abelian subgroup         C1      NOp   1
 Largest concise Abelian subgroup C1      NOp   1
                         Standard orientation:                         
 ---------------------------------------------------------------------
 Center     Atomic      Atomic             Coordinates (Angstroms)
 Number     Number       Type             X           Y           Z
 ---------------------------------------------------------------------
      1          6           0        1.275303   -0.258522    0.014430
      2          6           0       -0.003930    0.582474   -0.001888
      3          6           0       -1.273068   -0.264467   -0.001546
      4          1           0        1.385880   -0.903496    0.905621
      5          1           0        2.139999    0.409885   -0.069473
      6          1           0        1.277956   -0.867984   -0.899200
      7          1           0       -0.089996    1.307342    0.920302
      8          1           0        0.004096    1.201838   -0.918700
      9          1           0       -2.200456    0.324587   -0.119486
     10          1           0       -1.317525   -0.835881    0.932382
     11          1           0       -1.189786   -0.993202   -0.817420
 ---------------------------------------------------------------------
 Rotational constants (GHZ):          29.1109373           8.4028847           7.4681878
 Standard basis: 6-31G(d) (6D, 7F)
 There are    61 symmetry adapted cartesian basis functions of A   symmetry.
 There are    61 symmetry adapted basis functions of A   symmetry.
    61 basis functions,   116 primitive gaussians,    61 cartesian basis functions
    13 alpha electrons       13 beta electrons
       nuclear repulsion energy        82.1243311155 Hartrees.
 NAtoms=   11 NActive=   11 NUniq=   11 SFac= 1.00D+00 NAtFMM=   60 NAOKFM=F Big=F
 Integral buffers will be    131072 words long.
 Raffenetti 2 integral format.
 Two-electron integral symmetry is turned on.
 One-electron integrals computed using PRISM.
 NBasis=    61 RedAO= T EigKep=  6.19D-03  NBF=    61
 NBsUse=    61 1.00D-06 EigRej= -1.00D+00 NBFU=    61
 ExpMin= 1.61D-01 ExpMax= 3.05D+03 ExpMxC= 4.57D+02 IAcc=3 IRadAn=         5 AccDes= 0.00D+00
 Harris functional with IExCor= 4538 and IRadAn=       5 diagonalized for initial guess.
 HarFok:  IExCor= 4538 AccDes= 0.00D+00 IRadAn=         5 IDoV= 1 UseB2=F ITyADJ=14
 ICtDFT=  3500011 ScaDFX=  1.000000  1.000000  1.000000  1.000000
 FoFCou: FMM=F IPFlag=           0 FMFlag=      100000 FMFlg1=           0
         NFxFlg=           0 DoJE=T BraDBF=F KetDBF=T FulRan=T
         wScrn=  0.000000 ICntrl=       500 IOpCl=  0 I1Cent=   200000004 NGrid=           0
         NMat0=    1 NMatS0=      1 NMatT0=    0 NMatD0=    1 NMtDS0=    0 NMtDT0=    0
 Petite list used in FoFCou.
 Keep R1 ints in memory in canonical form, NReq=5346468.
 Requested convergence on RMS density matrix=1.00D-08 within 128 cycles.
 Requested convergence on MAX density matrix=1.00D-06.
 Requested convergence on             energy=1.00D-06.
 No special actions if energy rises.
 Integral accuracy reduced to 1.0D-05 until final iterations.
 Initial convergence to 1.0D-05 achieved.  Increase integral accuracy.
 SCF Done:  E(RwB97X) =  -119.100081738     A.U. after   12 cycles
            NFock= 12  Conv=0.30D-08     -V/T= 2.0116

 **********************************************************************

            Population analysis using the SCF density.

 **********************************************************************

 Orbital symmetries:
       Occupied  (A) (A) (A) (A) (A) (A) (A) (A) (A) (A) (A) (A)
                 (A)
       Virtual   (A) (A) (A) (A) (A) (A) (A) (A) (A) (A) (A) (A)
                 (A) (A) (A) (A) (A) (A) (A) (A) (A) (A) (A) (A)
                 (A) (A) (A) (A) (A) (A) (A) (A) (A) (A) (A) (A)
                 (A) (A) (A) (A) (A) (A) (A) (A) (A) (A) (A) (A)
 The electronic state is 1-A.
 Alpha  occ. eigenvalues --  -10.27015 -10.25685 -10.25316  -0.90701  -0.80295
 Alpha  occ. eigenvalues --   -0.69308  -0.56517  -0.54353  -0.50032  -0.48300
 Alpha  occ. eigenvalues --   -0.43660  -0.42894  -0.41785
 Alpha virt. eigenvalues --    0.18452   0.23185   0.24290   0.24888   0.26219
 Alpha virt. eigenvalues --    0.28409   0.29398   0.29747   0.32089   0.36366
 Alpha virt. eigenvalues --    0.61801   0.62154   0.65777   0.67049   0.68683
 Alpha virt. eigenvalues --    0.78230   0.82081   0.85480   0.89596   0.96675
 Alpha virt. eigenvalues --    0.98744   1.00844   1.03228   1.03647   1.05727
 Alpha virt. eigenvalues --    1.08894   1.09992   1.14244   1.50025   1.55725
 Alpha virt. eigenvalues --    1.57220   1.67380   1.84651   2.00292   2.04080
 Alpha virt. eigenvalues --    2.07572   2.16247   2.20201   2.33966   2.36179
 Alpha virt. eigenvalues --    2.39039   2.48569   2.52167   2.68168   2.78885
 Alpha virt. eigenvalues --    4.25857   4.40480   4.57843
          Condensed to atoms (all electrons):
               1          2          3          4          5          6
     1  C    5.079475   0.364636  -0.055889   0.384083   0.383809   0.383343
     2  C    0.364636   4.981448   0.363543  -0.031420  -0.032036  -0.039088
     3  C   -0.055889   0.363543   5.085084  -0.002434   0.004532  -0.005131
     4  H    0.384083  -0.031420  -0.002434   0.541196  -0.025083  -0.026040
     5  H    0.383809  -0.032036   0.004532  -0.025083   0.545776  -0.029921
     6  H    0.383343  -0.039088  -0.005131  -0.026040  -0.029921   0.559919
     7  H   -0.033099   0.381506  -0.042704  -0.002888  -0.002303   0.004249
     8  H   -0.040366   0.390113  -0.041751   0.004193  -0.003220  -0.004020
     9  H    0.004032  -0.027191   0.383624  -0.000032  -0.000128  -0.000022
    10  H   -0.002901  -0.037941   0.385175   0.003420  -0.000066  -0.000236
    11  H   -0.004196  -0.041941   0.383413  -0.000275  -0.000006   0.005710
               7          8          9         10         11
     1  C   -0.033099  -0.040366   0.004032  -0.002901  -0.004196
     2  C    0.381506   0.390113  -0.027191  -0.037941  -0.041941
     3  C   -0.042704  -0.041751   0.383624   0.385175   0.383413
     4  H   -0.002888   0.004193  -0.000032   0.003420  -0.000275
     5  H   -0.002303  -0.003220  -0.000128  -0.000066  -0.000006
     6  H    0.004249  -0.004020  -0.000022  -0.000236   0.005710
     7  H    0.599976  -0.029331  -0.001782  -0.005089   0.005091
     8  H   -0.029331   0.580344  -0.003196   0.005000  -0.003703
     9  H   -0.001782  -0.003196   0.539519  -0.025870  -0.025247
    10  H   -0.005089   0.005000  -0.025870   0.557209  -0.030329
    11  H    0.005091  -0.003703  -0.025247  -0.030329   0.564851
 Mulliken charges:
               1
     1  C   -0.462927
     2  C   -0.271630
     3  C   -0.457462
     4  H    0.155280
     5  H    0.158644
     6  H    0.151237
     7  H    0.126374
     8  H    0.145935
     9  H    0.156291
    10  H    0.151627
    11  H    0.146631
 Sum of Mulliken charges =  -0.00000
 Mulliken charges with hydrogens summed into heavy atoms:
               1
     1  C    0.002233
     2  C    0.000680
     3  C   -0.002913
 Electronic spatial extent (au):  <R**2>=            226.9916
 Charge=             -0.0000 electrons
 Dipole moment (field-independent basis, Debye):
    X=              0.0461    Y=             -0.0021    Z=             -0.0775  Tot=              0.0902
 Quadrupole moment (field-independent basis, Debye-Ang):
   XX=            -21.9317   YY=            -21.8642   ZZ=            -21.1950
   XY=             -0.1792   XZ=             -0.0914   YZ=             -0.1650
 Traceless Quadrupole moment (field-independent basis, Debye-Ang):
   XX=             -0.2681   YY=             -0.2005   ZZ=              0.4686
   XY=             -0.1792   XZ=             -0.0914   YZ=             -0.1650
 Octapole moment (field-independent basis, Debye-Ang**2):
  XXX=             -0.2289  YYY=             -0.2547  ZZZ=             -0.0378  XYY=              0.1068
  XXY=              1.5714  XXZ=             -0.1711  XZZ=              0.2279  YZZ=             -0.5771
  YYZ=             -0.0269  XYZ=             -0.1678
 Hexadecapole moment (field-independent basis, Debye-Ang**3):
 XXXX=           -198.2551 YYYY=            -70.5958 ZZZZ=            -43.3686 XXXY=             -0.5979
 XXXZ=              0.1308 YYYX=             -0.2032 YYYZ=             -0.1538 ZZZX=             -0.3501
 ZZZY=             -0.4894 XXYY=            -44.7360 XXZZ=            -41.2558 YYZZ=            -16.8290
 XXYZ=             -0.8272 YYXZ=              0.0688 ZZXY=             -0.3907
 N-N= 8.212433111553D+01 E-N=-4.386318086087D+02  KE= 1.177378236834D+02
 1\1\GINC-NODE67\SP\RwB97X\6-31G(d)\C3H8\YANZ\22-Sep-2023\0\\# 6-31g(d)
  wb97x\\tmpdir/M2_ref_73.gjf\\0,1\C,0,8.694786,33.331639,34.697477\C,0
 ,9.797688,32.274648,34.799237\C,0,11.196489,32.879363,34.874723\H,0,8.
 64115908,34.01961012,35.56134011\H,0,7.730997,32.826618,34.564923\H,0,
 8.867058,33.896258,33.771357\H,0,9.68564206,31.58193706,35.7430972\H,0
 ,9.74144,31.632164,33.900198\H,0,12.00723408,32.12931069,34.84220894\H
 ,0,11.27855,33.468826,35.794783\H,0,11.304517,33.579445,34.036954\\Ver
 sion=ES64L-G16RevA.03\State=1-A\HF=-119.1000817\RMSD=3.019e-09\Dipole=
 -0.0154848,0.0028869,-0.0317933\Quadrupole=-0.2549646,-0.0946689,0.349
 6336,-0.1208003,0.0514793,0.1172433\PG=C01 [X(C3H8)]\\@


 HEAVEN'S NET CASTS WIDE.
 THOUGH ITS MESHES ARE COARSE, NOTHING SLIPS THROUGH.

                                          -- LAO-TSU
 Job cpu time:       0 days  0 hours  0 minutes 19.7 seconds.
 Elapsed time:       0 days  0 hours  0 minutes  9.9 seconds.
 File lengths (MBytes):  RWF=      6 Int=      0 D2E=      0 Chk=      1 Scr=      1
 Normal termination of Gaussian 16 at Fri Sep 22 16:29:44 2023.
