 Entering Gaussian System, Link 0=g16
 Initial command:
 /share/apps/gaussian/g16/l1.exe "/tmp/55568.mgr/Gau-353352.inp" -scrdir="/tmp/55568.mgr/"
 Entering Link 1 = /share/apps/gaussian/g16/l1.exe PID=    353353.
  
 Copyright (c) 1988,1990,1992,1993,1995,1998,2003,2009,2016,
            Gaussian, Inc.  All Rights Reserved.
  
 This is part of the Gaussian(R) 16 program.  It is based on
 the Gaussian(R) 09 system (copyright 2009, Gaussian, Inc.),
 the Gaussian(R) 03 system (copyright 2003, Gaussian, Inc.),
 the Gaussian(R) 98 system (copyright 1998, Gaussian, Inc.),
 the Gaussian(R) 94 system (copyright 1995, Gaussian, Inc.),
 the Gaussian 92(TM) system (copyright 1992, Gaussian, Inc.),
 the Gaussian 90(TM) system (copyright 1990, Gaussian, Inc.),
 the Gaussian 88(TM) system (copyright 1988, Gaussian, Inc.),
 the Gaussian 86(TM) system (copyright 1986, Carnegie Mellon
 University), and the Gaussian 82(TM) system (copyright 1983,
 Carnegie Mellon University). Gaussian is a federally registered
 trademark of Gaussian, Inc.
  
 This software contains proprietary and confidential information,
 including trade secrets, belonging to Gaussian, Inc.
  
 This software is provided under written license and may be
 used, copied, transmitted, or stored only in accord with that
 written license.
  
 The following legend is applicable only to US Government
 contracts under FAR:
  
                    RESTRICTED RIGHTS LEGEND
  
 Use, reproduction and disclosure by the US Government is
 subject to restrictions as set forth in subparagraphs (a)
 and (c) of the Commercial Computer Software - Restricted
 Rights clause in FAR 52.227-19.
  
 Gaussian, Inc.
 340 Quinnipiac St., Bldg. 40, Wallingford CT 06492
  
  
 ---------------------------------------------------------------
 Warning -- This program may not be used in any manner that
 competes with the business of Gaussian, Inc. or will provide
 assistance to any competitor of Gaussian, Inc.  The licensee
 of this program is prohibited from giving any competitor of
 Gaussian, Inc. access to this program.  By using this program,
 the user acknowledges that Gaussian, Inc. is engaged in the
 business of creating and licensing software in the field of
 computational chemistry and represents and warrants to the
 licensee that it is not a competitor of Gaussian, Inc. and that
 it will not use this program in any manner prohibited above.
 ---------------------------------------------------------------
  

 Cite this work as:
 Gaussian 16, Revision A.03,
 M. J. Frisch, G. W. Trucks, H. B. Schlegel, G. E. Scuseria, 
 M. A. Robb, J. R. Cheeseman, G. Scalmani, V. Barone, 
 G. A. Petersson, H. Nakatsuji, X. Li, M. Caricato, A. V. Marenich, 
 J. Bloino, B. G. Janesko, R. Gomperts, B. Mennucci, H. P. Hratchian, 
 J. V. Ortiz, A. F. Izmaylov, J. L. Sonnenberg, D. Williams-Young, 
 F. Ding, F. Lipparini, F. Egidi, J. Goings, B. Peng, A. Petrone, 
 T. Henderson, D. Ranasinghe, V. G. Zakrzewski, J. Gao, N. Rega, 
 G. Zheng, W. Liang, M. Hada, M. Ehara, K. Toyota, R. Fukuda, 
 J. Hasegawa, M. Ishida, T. Nakajima, Y. Honda, O. Kitao, H. Nakai, 
 T. Vreven, K. Throssell, J. A. Montgomery, Jr., J. E. Peralta, 
 F. Ogliaro, M. J. Bearpark, J. J. Heyd, E. N. Brothers, K. N. Kudin, 
 V. N. Staroverov, T. A. Keith, R. Kobayashi, J. Normand, 
 K. Raghavachari, A. P. Rendell, J. C. Burant, S. S. Iyengar, 
 J. Tomasi, M. Cossi, J. M. Millam, M. Klene, C. Adamo, R. Cammi, 
 J. W. Ochterski, R. L. Martin, K. Morokuma, O. Farkas, 
 J. B. Foresman, and D. J. Fox, Gaussian, Inc., Wallingford CT, 2016.
 
 ******************************************
 Gaussian 16:  ES64L-G16RevA.03 25-Dec-2016
                22-Sep-2023 
 ******************************************
 %nprocshared=2
 Will use up to    2 processors via shared memory.
 %mem=2GB
 ----------------
 # 6-31g(d) wb97x
 ----------------
 1/38=1,172=1/1;
 2/12=2,17=6,18=5,40=1/2;
 3/5=1,6=6,7=1,11=2,25=1,30=1,74=-57/1,2,3;
 4//1;
 5/5=2,38=5/2;
 6/7=2,8=2,9=2,10=2,28=1/1;
 99/5=1,9=1/99;
 --------------------
 tmpdir/M2_ref_63.gjf
 --------------------
 Symbolic Z-matrix:
 Charge =  0 Multiplicity = 1
 C                     6.5308    30.2011   37.31476 
 C                     7.329     30.98657   36.59869 
 H                     7.01408   32.01936   36.47357 
 H                     5.58206   30.57419   37.79206 
 H                     6.76041   29.15855   37.50799 
 H                     8.23644   30.63643   36.11591 
 
                          Input orientation:                          
 ---------------------------------------------------------------------
 Center     Atomic      Atomic             Coordinates (Angstroms)
 Number     Number       Type             X           Y           Z
 ---------------------------------------------------------------------
      1          6           0        6.530805   30.201104   37.314760
      2          6           0        7.329002   30.986570   36.598694
      3          1           0        7.014081   32.019358   36.473568
      4          1           0        5.582058   30.574190   37.792056
      5          1           0        6.760409   29.158550   37.507986
      6          1           0        8.236438   30.636431   36.115908
 ---------------------------------------------------------------------
                    Distance matrix (angstroms):
                    1          2          3          4          5
     1  C    0.000000
     2  C    1.329220   0.000000
     3  H    2.060875   1.086960   0.000000
     4  H    1.125666   2.155454   2.424378   0.000000
     5  H    1.084884   2.119379   3.052637   1.863664   0.000000
     6  H    2.129775   1.085873   1.880044   3.139917   2.510115
                    6
     6  H    0.000000
 Stoichiometry    C2H4
 Framework group  C1[X(C2H4)]
 Deg. of freedom    12
 Full point group                 C1      NOp   1
 Largest Abelian subgroup         C1      NOp   1
 Largest concise Abelian subgroup C1      NOp   1
                         Standard orientation:                         
 ---------------------------------------------------------------------
 Center     Atomic      Atomic             Coordinates (Angstroms)
 Number     Number       Type             X           Y           Z
 ---------------------------------------------------------------------
      1          6           0        0.658112   -0.013468    0.004428
      2          6           0       -0.670987    0.001331   -0.005620
      3          1           0       -1.148814    0.977601    0.002175
      4          1           0        1.275058    0.928069    0.001225
      5          1           0        1.230326   -0.934998   -0.013696
      6          1           0       -1.279321   -0.897846    0.017449
 ---------------------------------------------------------------------
 Rotational constants (GHZ):         143.2680920          30.1812457          24.9320335
 Standard basis: 6-31G(d) (6D, 7F)
 There are    38 symmetry adapted cartesian basis functions of A   symmetry.
 There are    38 symmetry adapted basis functions of A   symmetry.
    38 basis functions,    72 primitive gaussians,    38 cartesian basis functions
     8 alpha electrons        8 beta electrons
       nuclear repulsion energy        33.2632378797 Hartrees.
 NAtoms=    6 NActive=    6 NUniq=    6 SFac= 1.00D+00 NAtFMM=   60 NAOKFM=F Big=F
 Integral buffers will be    131072 words long.
 Raffenetti 2 integral format.
 Two-electron integral symmetry is turned on.
 One-electron integrals computed using PRISM.
 NBasis=    38 RedAO= T EigKep=  7.49D-03  NBF=    38
 NBsUse=    38 1.00D-06 EigRej= -1.00D+00 NBFU=    38
 ExpMin= 1.61D-01 ExpMax= 3.05D+03 ExpMxC= 4.57D+02 IAcc=3 IRadAn=         5 AccDes= 0.00D+00
 Harris functional with IExCor= 4538 and IRadAn=       5 diagonalized for initial guess.
 HarFok:  IExCor= 4538 AccDes= 0.00D+00 IRadAn=         5 IDoV= 1 UseB2=F ITyADJ=14
 ICtDFT=  3500011 ScaDFX=  1.000000  1.000000  1.000000  1.000000
 FoFCou: FMM=F IPFlag=           0 FMFlag=      100000 FMFlg1=           0
         NFxFlg=           0 DoJE=T BraDBF=F KetDBF=T FulRan=T
         wScrn=  0.000000 ICntrl=       500 IOpCl=  0 I1Cent=   200000004 NGrid=           0
         NMat0=    1 NMatS0=      1 NMatT0=    0 NMatD0=    1 NMtDS0=    0 NMtDT0=    0
 Petite list used in FoFCou.
 Keep R1 ints in memory in canonical form, NReq=2276060.
 Requested convergence on RMS density matrix=1.00D-08 within 128 cycles.
 Requested convergence on MAX density matrix=1.00D-06.
 Requested convergence on             energy=1.00D-06.
 No special actions if energy rises.
 Integral accuracy reduced to 1.0D-05 until final iterations.
 Initial convergence to 1.0D-05 achieved.  Increase integral accuracy.
 SCF Done:  E(RwB97X) =  -78.5556640043     A.U. after   12 cycles
            NFock= 12  Conv=0.71D-08     -V/T= 2.0108

 **********************************************************************

            Population analysis using the SCF density.

 **********************************************************************

 Orbital symmetries:
       Occupied  (A) (A) (A) (A) (A) (A) (A) (A)
       Virtual   (A) (A) (A) (A) (A) (A) (A) (A) (A) (A) (A) (A)
                 (A) (A) (A) (A) (A) (A) (A) (A) (A) (A) (A) (A)
                 (A) (A) (A) (A) (A) (A)
 The electronic state is 1-A.
 Alpha  occ. eigenvalues --  -10.27026 -10.26703  -0.88435  -0.69214  -0.57698
 Alpha  occ. eigenvalues --   -0.51859  -0.45204  -0.36859
 Alpha virt. eigenvalues --    0.11351   0.21548   0.23659   0.25831   0.34762
 Alpha virt. eigenvalues --    0.42693   0.58446   0.65549   0.68033   0.75024
 Alpha virt. eigenvalues --    0.75898   0.81903   0.95648   0.99253   1.04517
 Alpha virt. eigenvalues --    1.05088   1.21483   1.33709   1.57048   1.64807
 Alpha virt. eigenvalues --    1.93664   1.99395   2.08670   2.20219   2.39809
 Alpha virt. eigenvalues --    2.49586   2.78616   2.82670   4.22461   4.37282
          Condensed to atoms (all electrons):
               1          2          3          4          5          6
     1  C    4.963505   0.663838  -0.040010   0.382976   0.386589  -0.034594
     2  C    0.663838   4.951980   0.388124  -0.034053  -0.036702   0.387462
     3  H   -0.040010   0.388124   0.525853  -0.006971   0.004202  -0.030880
     4  H    0.382976  -0.034053  -0.006971   0.533448  -0.034880   0.003428
     5  H    0.386589  -0.036702   0.004202  -0.034880   0.526208  -0.005422
     6  H   -0.034594   0.387462  -0.030880   0.003428  -0.005422   0.512796
 Mulliken charges:
               1
     1  C   -0.322303
     2  C   -0.320649
     3  H    0.159683
     4  H    0.156053
     5  H    0.160006
     6  H    0.167210
 Sum of Mulliken charges =   0.00000
 Mulliken charges with hydrogens summed into heavy atoms:
               1
     1  C   -0.006244
     2  C    0.006244
 Electronic spatial extent (au):  <R**2>=             82.2956
 Charge=              0.0000 electrons
 Dipole moment (field-independent basis, Debye):
    X=              0.0042    Y=             -0.0103    Z=              0.0071  Tot=              0.0132
 Quadrupole moment (field-independent basis, Debye-Ang):
   XX=            -11.9886   YY=            -12.0062   ZZ=            -15.1510
   XY=              0.1274   XZ=             -0.0434   YZ=             -0.0003
 Traceless Quadrupole moment (field-independent basis, Debye-Ang):
   XX=              1.0600   YY=              1.0424   ZZ=             -2.1024
   XY=              0.1274   XZ=             -0.0434   YZ=             -0.0003
 Octapole moment (field-independent basis, Debye-Ang**2):
  XXX=              0.1198  YYY=              0.0509  ZZZ=              0.0092  XYY=             -0.1003
  XXY=             -0.2385  XXZ=              0.0172  XZZ=             -0.0371  YZZ=             -0.0347
  YYZ=              0.0092  XYZ=              0.0400
 Hexadecapole moment (field-independent basis, Debye-Ang**3):
 XXXX=            -66.5358 YYYY=            -26.0769 ZZZZ=            -15.7690 XXXY=              0.6794
 XXXZ=             -0.1180 YYYX=             -0.0199 YYYZ=              0.0013 ZZZX=             -0.0391
 ZZZY=             -0.0005 XXYY=            -12.8770 XXZZ=            -14.6423 YYZZ=             -7.6252
 XXYZ=             -0.0038 YYXZ=             -0.0619 ZZXY=             -0.0093
 N-N= 3.326323787974D+01 E-N=-2.478306836670D+02  KE= 7.771740144097D+01
 1\1\GINC-NODE67\SP\RwB97X\6-31G(d)\C2H4\YANZ\22-Sep-2023\0\\# 6-31g(d)
  wb97x\\tmpdir/M2_ref_63.gjf\\0,1\C,0,6.530805,30.201104,37.31476\C,0,
 7.329002,30.98657,36.598694\H,0,7.014081,32.019358,36.473568\H,0,5.582
 05829,30.57418978,37.79205568\H,0,6.76040861,29.15854963,37.50798617\H
 ,0,8.23643798,30.63643069,36.11590764\\Version=ES64L-G16RevA.03\State=
 1-A\HF=-78.555664\RMSD=7.107e-09\Dipole=0.0000581,-0.0047879,-0.001971
 3\Quadrupole=0.2248189,0.5417337,-0.7665527,-0.3147094,-1.0324832,-0.4
 600559\PG=C01 [X(C2H4)]\\@


 NOT WHAT WE DID SHALL BE THE TEST
 WHEN ACT AND WILL ARE DONE,
 BUT WHAT OUR LORD INFERS WE WOULD-
 HAD WE DIVINER BEEN.
           EMILY DICKINSON  POEMS NO. CLXXV
 Job cpu time:       0 days  0 hours  0 minutes  8.1 seconds.
 Elapsed time:       0 days  0 hours  0 minutes  4.0 seconds.
 File lengths (MBytes):  RWF=      6 Int=      0 D2E=      0 Chk=      1 Scr=      1
 Normal termination of Gaussian 16 at Fri Sep 22 16:29:31 2023.
