 Entering Gaussian System, Link 0=g16
 Initial command:
 /share/apps/gaussian/g16/l1.exe "/tmp/55568.mgr/Gau-353914.inp" -scrdir="/tmp/55568.mgr/"
 Entering Link 1 = /share/apps/gaussian/g16/l1.exe PID=    353915.
  
 Copyright (c) 1988,1990,1992,1993,1995,1998,2003,2009,2016,
            Gaussian, Inc.  All Rights Reserved.
  
 This is part of the Gaussian(R) 16 program.  It is based on
 the Gaussian(R) 09 system (copyright 2009, Gaussian, Inc.),
 the Gaussian(R) 03 system (copyright 2003, Gaussian, Inc.),
 the Gaussian(R) 98 system (copyright 1998, Gaussian, Inc.),
 the Gaussian(R) 94 system (copyright 1995, Gaussian, Inc.),
 the Gaussian 92(TM) system (copyright 1992, Gaussian, Inc.),
 the Gaussian 90(TM) system (copyright 1990, Gaussian, Inc.),
 the Gaussian 88(TM) system (copyright 1988, Gaussian, Inc.),
 the Gaussian 86(TM) system (copyright 1986, Carnegie Mellon
 University), and the Gaussian 82(TM) system (copyright 1983,
 Carnegie Mellon University). Gaussian is a federally registered
 trademark of Gaussian, Inc.
  
 This software contains proprietary and confidential information,
 including trade secrets, belonging to Gaussian, Inc.
  
 This software is provided under written license and may be
 used, copied, transmitted, or stored only in accord with that
 written license.
  
 The following legend is applicable only to US Government
 contracts under FAR:
  
                    RESTRICTED RIGHTS LEGEND
  
 Use, reproduction and disclosure by the US Government is
 subject to restrictions as set forth in subparagraphs (a)
 and (c) of the Commercial Computer Software - Restricted
 Rights clause in FAR 52.227-19.
  
 Gaussian, Inc.
 340 Quinnipiac St., Bldg. 40, Wallingford CT 06492
  
  
 ---------------------------------------------------------------
 Warning -- This program may not be used in any manner that
 competes with the business of Gaussian, Inc. or will provide
 assistance to any competitor of Gaussian, Inc.  The licensee
 of this program is prohibited from giving any competitor of
 Gaussian, Inc. access to this program.  By using this program,
 the user acknowledges that Gaussian, Inc. is engaged in the
 business of creating and licensing software in the field of
 computational chemistry and represents and warrants to the
 licensee that it is not a competitor of Gaussian, Inc. and that
 it will not use this program in any manner prohibited above.
 ---------------------------------------------------------------
  

 Cite this work as:
 Gaussian 16, Revision A.03,
 M. J. Frisch, G. W. Trucks, H. B. Schlegel, G. E. Scuseria, 
 M. A. Robb, J. R. Cheeseman, G. Scalmani, V. Barone, 
 G. A. Petersson, H. Nakatsuji, X. Li, M. Caricato, A. V. Marenich, 
 J. Bloino, B. G. Janesko, R. Gomperts, B. Mennucci, H. P. Hratchian, 
 J. V. Ortiz, A. F. Izmaylov, J. L. Sonnenberg, D. Williams-Young, 
 F. Ding, F. Lipparini, F. Egidi, J. Goings, B. Peng, A. Petrone, 
 T. Henderson, D. Ranasinghe, V. G. Zakrzewski, J. Gao, N. Rega, 
 G. Zheng, W. Liang, M. Hada, M. Ehara, K. Toyota, R. Fukuda, 
 J. Hasegawa, M. Ishida, T. Nakajima, Y. Honda, O. Kitao, H. Nakai, 
 T. Vreven, K. Throssell, J. A. Montgomery, Jr., J. E. Peralta, 
 F. Ogliaro, M. J. Bearpark, J. J. Heyd, E. N. Brothers, K. N. Kudin, 
 V. N. Staroverov, T. A. Keith, R. Kobayashi, J. Normand, 
 K. Raghavachari, A. P. Rendell, J. C. Burant, S. S. Iyengar, 
 J. Tomasi, M. Cossi, J. M. Millam, M. Klene, C. Adamo, R. Cammi, 
 J. W. Ochterski, R. L. Martin, K. Morokuma, O. Farkas, 
 J. B. Foresman, and D. J. Fox, Gaussian, Inc., Wallingford CT, 2016.
 
 ******************************************
 Gaussian 16:  ES64L-G16RevA.03 25-Dec-2016
                22-Sep-2023 
 ******************************************
 %nprocshared=2
 Will use up to    2 processors via shared memory.
 %mem=2GB
 ----------------
 # 6-31g(d) wb97x
 ----------------
 1/38=1,172=1/1;
 2/12=2,17=6,18=5,40=1/2;
 3/5=1,6=6,7=1,11=2,25=1,30=1,74=-57/1,2,3;
 4//1;
 5/5=2,38=5/2;
 6/7=2,8=2,9=2,10=2,28=1/1;
 99/5=1,9=1/99;
 --------------------
 tmpdir/M2_ref_80.gjf
 --------------------
 Symbolic Z-matrix:
 Charge =  0 Multiplicity = 1
 C                     9.79769   32.27465   34.79924 
 C                     8.69479   33.33164   34.69748 
 H                     7.731     32.82662   34.56492 
 H                     9.68564   31.58194   35.7431 
 H                     10.81026   32.71239   34.85388 
 H                     9.74144   31.63216   33.9002 
 H                     8.64116   34.01961   35.56134 
 H                     8.86706   33.89626   33.77136 
 
                          Input orientation:                          
 ---------------------------------------------------------------------
 Center     Atomic      Atomic             Coordinates (Angstroms)
 Number     Number       Type             X           Y           Z
 ---------------------------------------------------------------------
      1          6           0        9.797688   32.274648   34.799237
      2          6           0        8.694786   33.331639   34.697477
      3          1           0        7.730997   32.826618   34.564923
      4          1           0        9.685642   31.581937   35.743097
      5          1           0       10.810260   32.712393   34.853880
      6          1           0        9.741440   31.632164   33.900198
      7          1           0        8.641159   34.019610   35.561340
      8          1           0        8.867058   33.896258   33.771357
 ---------------------------------------------------------------------
                    Distance matrix (angstroms):
                    1          2          3          4          5
     1  C    0.000000
     2  C    1.531006   0.000000
     3  H    2.151926   1.096132   0.000000
     4  H    1.176127   2.266401   2.599608   0.000000
     5  H    1.104495   2.209787   3.094900   1.825761   0.000000
     6  H    1.106445   2.149268   2.431144   1.844428   1.794096
     7  H    2.227836   1.105640   1.801242   2.658238   2.629509
     8  H    2.133595   1.098258   1.750575   3.148638   2.519807
                    6          7          8
     6  H    0.000000
     7  H    3.109648   0.000000
     8  H    2.430487   1.808393   0.000000
 Stoichiometry    C2H6
 Framework group  C1[X(C2H6)]
 Deg. of freedom    18
 Full point group                 C1      NOp   1
 Largest Abelian subgroup         C1      NOp   1
 Largest concise Abelian subgroup C1      NOp   1
                         Standard orientation:                         
 ---------------------------------------------------------------------
 Center     Atomic      Atomic             Coordinates (Angstroms)
 Number     Number       Type             X           Y           Z
 ---------------------------------------------------------------------
      1          6           0       -0.760134    0.003332   -0.008195
      2          6           0        0.770747   -0.015485   -0.003174
      3          1           0        1.123888    0.149757    1.021274
      4          1           0       -1.233239   -0.870741    0.620647
      5          1           0       -1.188681   -0.077077   -1.022981
      6          1           0       -1.093165    0.959305    0.438377
      7          1           0        1.216897   -0.942627   -0.407893
      8          1           0        1.110623    0.854302   -0.581210
 ---------------------------------------------------------------------
 Rotational constants (GHZ):          77.1538246          19.8742041          19.7522086
 Standard basis: 6-31G(d) (6D, 7F)
 There are    42 symmetry adapted cartesian basis functions of A   symmetry.
 There are    42 symmetry adapted basis functions of A   symmetry.
    42 basis functions,    80 primitive gaussians,    42 cartesian basis functions
     9 alpha electrons        9 beta electrons
       nuclear repulsion energy        41.7688995943 Hartrees.
 NAtoms=    8 NActive=    8 NUniq=    8 SFac= 1.00D+00 NAtFMM=   60 NAOKFM=F Big=F
 Integral buffers will be    131072 words long.
 Raffenetti 2 integral format.
 Two-electron integral symmetry is turned on.
 One-electron integrals computed using PRISM.
 NBasis=    42 RedAO= T EigKep=  8.58D-03  NBF=    42
 NBsUse=    42 1.00D-06 EigRej= -1.00D+00 NBFU=    42
 ExpMin= 1.61D-01 ExpMax= 3.05D+03 ExpMxC= 4.57D+02 IAcc=3 IRadAn=         5 AccDes= 0.00D+00
 Harris functional with IExCor= 4538 and IRadAn=       5 diagonalized for initial guess.
 HarFok:  IExCor= 4538 AccDes= 0.00D+00 IRadAn=         5 IDoV= 1 UseB2=F ITyADJ=14
 ICtDFT=  3500011 ScaDFX=  1.000000  1.000000  1.000000  1.000000
 FoFCou: FMM=F IPFlag=           0 FMFlag=      100000 FMFlg1=           0
         NFxFlg=           0 DoJE=T BraDBF=F KetDBF=T FulRan=T
         wScrn=  0.000000 ICntrl=       500 IOpCl=  0 I1Cent=   200000004 NGrid=           0
         NMat0=    1 NMatS0=      1 NMatT0=    0 NMatD0=    1 NMtDS0=    0 NMtDT0=    0
 Petite list used in FoFCou.
 Keep R1 ints in memory in canonical form, NReq=2543288.
 Requested convergence on RMS density matrix=1.00D-08 within 128 cycles.
 Requested convergence on MAX density matrix=1.00D-06.
 Requested convergence on             energy=1.00D-06.
 No special actions if energy rises.
 Integral accuracy reduced to 1.0D-05 until final iterations.
 Initial convergence to 1.0D-05 achieved.  Increase integral accuracy.
 SCF Done:  E(RwB97X) =  -79.7965158233     A.U. after   12 cycles
            NFock= 12  Conv=0.21D-08     -V/T= 2.0124

 **********************************************************************

            Population analysis using the SCF density.

 **********************************************************************

 Orbital symmetries:
       Occupied  (A) (A) (A) (A) (A) (A) (A) (A) (A)
       Virtual   (A) (A) (A) (A) (A) (A) (A) (A) (A) (A) (A) (A)
                 (A) (A) (A) (A) (A) (A) (A) (A) (A) (A) (A) (A)
                 (A) (A) (A) (A) (A) (A) (A) (A) (A)
 The electronic state is 1-A.
 Alpha  occ. eigenvalues --  -10.26564 -10.25792  -0.87664  -0.72839  -0.54395
 Alpha  occ. eigenvalues --   -0.53476  -0.46465  -0.44376  -0.43279
 Alpha virt. eigenvalues --    0.19488   0.24467   0.25523   0.25901   0.28074
 Alpha virt. eigenvalues --    0.28829   0.33615   0.61765   0.65013   0.66064
 Alpha virt. eigenvalues --    0.74449   0.75234   0.78374   0.97067   0.99454
 Alpha virt. eigenvalues --    1.00634   1.02635   1.03805   1.08906   1.17161
 Alpha virt. eigenvalues --    1.53583   1.61844   1.63384   2.03784   2.08342
 Alpha virt. eigenvalues --    2.08722   2.34653   2.37774   2.40789   2.43078
 Alpha virt. eigenvalues --    2.70006   4.26072   4.48521
          Condensed to atoms (all electrons):
               1          2          3          4          5          6
     1  C    5.061475   0.351458  -0.036355   0.378224   0.386162   0.386690
     2  C    0.351458   5.049104   0.389071  -0.031392  -0.033046  -0.038024
     3  H   -0.036355   0.389071   0.550036  -0.003127   0.004044  -0.004070
     4  H    0.378224  -0.031392  -0.003127   0.573512  -0.028711  -0.025937
     5  H    0.386162  -0.033046   0.004044  -0.028711   0.548278  -0.028197
     6  H    0.386690  -0.038024  -0.004070  -0.025937  -0.028197   0.553750
     7  H   -0.030166   0.387381  -0.026076  -0.002555  -0.002432   0.003849
     8  H   -0.038951   0.388061  -0.031275   0.003929  -0.003660  -0.003516
               7          8
     1  C   -0.030166  -0.038951
     2  C    0.387381   0.388061
     3  H   -0.026076  -0.031275
     4  H   -0.002555   0.003929
     5  H   -0.002432  -0.003660
     6  H    0.003849  -0.003516
     7  H    0.536777  -0.025222
     8  H   -0.025222   0.554752
 Mulliken charges:
               1
     1  C   -0.458538
     2  C   -0.462613
     3  H    0.157753
     4  H    0.136057
     5  H    0.157562
     6  H    0.155455
     7  H    0.158443
     8  H    0.155882
 Sum of Mulliken charges =   0.00000
 Mulliken charges with hydrogens summed into heavy atoms:
               1
     1  C   -0.009465
     2  C    0.009465
 Electronic spatial extent (au):  <R**2>=            110.6650
 Charge=              0.0000 electrons
 Dipole moment (field-independent basis, Debye):
    X=              0.0424    Y=              0.0894    Z=             -0.0148  Tot=              0.1001
 Quadrupole moment (field-independent basis, Debye-Ang):
   XX=            -15.4344   YY=            -14.6721   ZZ=            -14.8212
   XY=             -0.0296   XZ=              0.0625   YZ=              0.0891
 Traceless Quadrupole moment (field-independent basis, Debye-Ang):
   XX=             -0.4585   YY=              0.3038   ZZ=              0.1547
   XY=             -0.0296   XZ=              0.0625   YZ=              0.0891
 Octapole moment (field-independent basis, Debye-Ang**2):
  XXX=              0.2409  YYY=              0.2547  ZZZ=             -0.0817  XYY=              0.2136
  XXY=             -0.2182  XXZ=             -0.1395  XZZ=             -0.0029  YZZ=              0.1292
  YYZ=              0.0097  XYZ=              0.1366
 Hexadecapole moment (field-independent basis, Debye-Ang**3):
 XXXX=            -94.0783 YYYY=            -29.5226 ZZZZ=            -29.0274 XXXY=             -0.1916
 XXXZ=              0.2538 YYYX=             -0.5812 YYYZ=              0.1451 ZZZX=              1.5422
 ZZZY=              0.2067 XXYY=            -19.1992 XXZZ=            -19.3026 YYZZ=             -9.7393
 XXYZ=              0.1193 YYXZ=             -1.3314 ZZXY=              0.3783
 N-N= 4.176889959431D+01 E-N=-2.671704589227D+02  KE= 7.881651660317D+01
 1\1\GINC-NODE67\SP\RwB97X\6-31G(d)\C2H6\YANZ\22-Sep-2023\0\\# 6-31g(d)
  wb97x\\tmpdir/M2_ref_80.gjf\\0,1\C,0,9.797688,32.274648,34.799237\C,0
 ,8.694786,33.331639,34.697477\H,0,7.730997,32.826618,34.564923\H,0,9.6
 8564206,31.58193706,35.7430972\H,0,10.81026046,32.71239272,34.85388026
 \H,0,9.74144,31.632164,33.900198\H,0,8.64115908,34.01961012,35.5613401
 1\H,0,8.867058,33.896258,33.771357\\Version=ES64L-G16RevA.03\State=1-A
 \HF=-79.7965158\RMSD=2.113e-09\Dipole=-0.00735,0.012295,-0.0366658\Qua
 drupole=-0.074497,-0.1358786,0.2103756,0.2296364,0.0032297,0.1018076\P
 G=C01 [X(C2H6)]\\@


 THERE'S A SUCKER BORN EVERY MINUTE

              -- PHINEAS TAYLOR (P.T.) BARNUM
 Job cpu time:       0 days  0 hours  0 minutes 10.3 seconds.
 Elapsed time:       0 days  0 hours  0 minutes  5.3 seconds.
 File lengths (MBytes):  RWF=      6 Int=      0 D2E=      0 Chk=      1 Scr=      1
 Normal termination of Gaussian 16 at Fri Sep 22 16:29:53 2023.
