 Entering Gaussian System, Link 0=g16
 Initial command:
 /share/apps/gaussian/g16/l1.exe "/tmp/55568.mgr/Gau-353041.inp" -scrdir="/tmp/55568.mgr/"
 Entering Link 1 = /share/apps/gaussian/g16/l1.exe PID=    353042.
  
 Copyright (c) 1988,1990,1992,1993,1995,1998,2003,2009,2016,
            Gaussian, Inc.  All Rights Reserved.
  
 This is part of the Gaussian(R) 16 program.  It is based on
 the Gaussian(R) 09 system (copyright 2009, Gaussian, Inc.),
 the Gaussian(R) 03 system (copyright 2003, Gaussian, Inc.),
 the Gaussian(R) 98 system (copyright 1998, Gaussian, Inc.),
 the Gaussian(R) 94 system (copyright 1995, Gaussian, Inc.),
 the Gaussian 92(TM) system (copyright 1992, Gaussian, Inc.),
 the Gaussian 90(TM) system (copyright 1990, Gaussian, Inc.),
 the Gaussian 88(TM) system (copyright 1988, Gaussian, Inc.),
 the Gaussian 86(TM) system (copyright 1986, Carnegie Mellon
 University), and the Gaussian 82(TM) system (copyright 1983,
 Carnegie Mellon University). Gaussian is a federally registered
 trademark of Gaussian, Inc.
  
 This software contains proprietary and confidential information,
 including trade secrets, belonging to Gaussian, Inc.
  
 This software is provided under written license and may be
 used, copied, transmitted, or stored only in accord with that
 written license.
  
 The following legend is applicable only to US Government
 contracts under FAR:
  
                    RESTRICTED RIGHTS LEGEND
  
 Use, reproduction and disclosure by the US Government is
 subject to restrictions as set forth in subparagraphs (a)
 and (c) of the Commercial Computer Software - Restricted
 Rights clause in FAR 52.227-19.
  
 Gaussian, Inc.
 340 Quinnipiac St., Bldg. 40, Wallingford CT 06492
  
  
 ---------------------------------------------------------------
 Warning -- This program may not be used in any manner that
 competes with the business of Gaussian, Inc. or will provide
 assistance to any competitor of Gaussian, Inc.  The licensee
 of this program is prohibited from giving any competitor of
 Gaussian, Inc. access to this program.  By using this program,
 the user acknowledges that Gaussian, Inc. is engaged in the
 business of creating and licensing software in the field of
 computational chemistry and represents and warrants to the
 licensee that it is not a competitor of Gaussian, Inc. and that
 it will not use this program in any manner prohibited above.
 ---------------------------------------------------------------
  

 Cite this work as:
 Gaussian 16, Revision A.03,
 M. J. Frisch, G. W. Trucks, H. B. Schlegel, G. E. Scuseria, 
 M. A. Robb, J. R. Cheeseman, G. Scalmani, V. Barone, 
 G. A. Petersson, H. Nakatsuji, X. Li, M. Caricato, A. V. Marenich, 
 J. Bloino, B. G. Janesko, R. Gomperts, B. Mennucci, H. P. Hratchian, 
 J. V. Ortiz, A. F. Izmaylov, J. L. Sonnenberg, D. Williams-Young, 
 F. Ding, F. Lipparini, F. Egidi, J. Goings, B. Peng, A. Petrone, 
 T. Henderson, D. Ranasinghe, V. G. Zakrzewski, J. Gao, N. Rega, 
 G. Zheng, W. Liang, M. Hada, M. Ehara, K. Toyota, R. Fukuda, 
 J. Hasegawa, M. Ishida, T. Nakajima, Y. Honda, O. Kitao, H. Nakai, 
 T. Vreven, K. Throssell, J. A. Montgomery, Jr., J. E. Peralta, 
 F. Ogliaro, M. J. Bearpark, J. J. Heyd, E. N. Brothers, K. N. Kudin, 
 V. N. Staroverov, T. A. Keith, R. Kobayashi, J. Normand, 
 K. Raghavachari, A. P. Rendell, J. C. Burant, S. S. Iyengar, 
 J. Tomasi, M. Cossi, J. M. Millam, M. Klene, C. Adamo, R. Cammi, 
 J. W. Ochterski, R. L. Martin, K. Morokuma, O. Farkas, 
 J. B. Foresman, and D. J. Fox, Gaussian, Inc., Wallingford CT, 2016.
 
 ******************************************
 Gaussian 16:  ES64L-G16RevA.03 25-Dec-2016
                22-Sep-2023 
 ******************************************
 %nprocshared=2
 Will use up to    2 processors via shared memory.
 %mem=2GB
 ----------------
 # 6-31g(d) wb97x
 ----------------
 1/38=1,172=1/1;
 2/12=2,17=6,18=5,40=1/2;
 3/5=1,6=6,7=1,11=2,25=1,30=1,74=-57/1,2,3;
 4//1;
 5/5=2,38=5/2;
 6/7=2,8=2,9=2,10=2,28=1/1;
 99/5=1,9=1/99;
 --------------------
 tmpdir/M2_ref_10.gjf
 --------------------
 Symbolic Z-matrix:
 Charge =  0 Multiplicity = 1
 C                     6.84799   28.76089   37.58169 
 C                     6.5308    30.2011   37.31476 
 C                     7.329     30.98657   36.59869 
 H                     7.68711   28.36284   36.98249 
 H                     5.93539   28.17384   37.43345 
 H                     7.07278   28.66401   38.65506 
 H                     5.58206   30.57419   37.79206 
 H                     8.23644   30.63643   36.11591 
 H                     7.01408   32.01936   36.47357 
 
                          Input orientation:                          
 ---------------------------------------------------------------------
 Center     Atomic      Atomic             Coordinates (Angstroms)
 Number     Number       Type             X           Y           Z
 ---------------------------------------------------------------------
      1          6           0        6.847987   28.760885   37.581689
      2          6           0        6.530805   30.201104   37.314760
      3          6           0        7.329002   30.986570   36.598694
      4          1           0        7.687115   28.362843   36.982494
      5          1           0        5.935393   28.173842   37.433446
      6          1           0        7.072778   28.664014   38.655061
      7          1           0        5.582058   30.574190   37.792056
      8          1           0        8.236438   30.636431   36.115908
      9          1           0        7.014081   32.019358   36.473568
 ---------------------------------------------------------------------
                    Distance matrix (angstroms):
                    1          2          3          4          5
     1  C    0.000000
     2  C    1.498695   0.000000
     3  C    2.480187   1.329220   0.000000
     4  H    1.105264   2.196966   2.675723   0.000000
     5  H    1.095182   2.116221   3.248137   1.818683   0.000000
     6  H    1.100928   2.110163   3.112646   1.807096   1.739614
     7  H    2.221464   1.125666   2.155454   3.158593   2.452573
     8  H    2.755718   2.129775   1.085873   2.494380   3.618709
     9  H    3.445746   2.060875   1.086960   3.752610   4.107667
                    6          7          8          9
     6  H    0.000000
     7  H    2.572119   0.000000
     8  H    3.419332   3.139917   0.000000
     9  H    4.002585   2.424378   1.880044   0.000000
 Stoichiometry    C3H6
 Framework group  C1[X(C3H6)]
 Deg. of freedom    21
 Full point group                 C1      NOp   1
 Largest Abelian subgroup         C1      NOp   1
 Largest concise Abelian subgroup C1      NOp   1
                         Standard orientation:                         
 ---------------------------------------------------------------------
 Center     Atomic      Atomic             Coordinates (Angstroms)
 Number     Number       Type             X           Y           Z
 ---------------------------------------------------------------------
      1          6           0       -1.214819   -0.182335   -0.002701
      2          6           0        0.135814    0.467124   -0.011651
      3          6           0        1.264807   -0.234199    0.006995
      4          1           0       -1.193955   -1.274291   -0.172422
      5          1           0       -1.846495    0.325984   -0.738922
      6          1           0       -1.682856    0.038639    0.968975
      7          1           0        0.120947    1.592668   -0.004209
      8          1           0        1.295357   -1.319306   -0.019999
      9          1           0        2.192183    0.332760    0.010719
 ---------------------------------------------------------------------
 Rotational constants (GHZ):          44.4489933           9.5527704           8.2557060
 Standard basis: 6-31G(d) (6D, 7F)
 There are    57 symmetry adapted cartesian basis functions of A   symmetry.
 There are    57 symmetry adapted basis functions of A   symmetry.
    57 basis functions,   108 primitive gaussians,    57 cartesian basis functions
    12 alpha electrons       12 beta electrons
       nuclear repulsion energy        70.7479785476 Hartrees.
 NAtoms=    9 NActive=    9 NUniq=    9 SFac= 1.00D+00 NAtFMM=   60 NAOKFM=F Big=F
 Integral buffers will be    131072 words long.
 Raffenetti 2 integral format.
 Two-electron integral symmetry is turned on.
 One-electron integrals computed using PRISM.
 NBasis=    57 RedAO= T EigKep=  5.02D-03  NBF=    57
 NBsUse=    57 1.00D-06 EigRej= -1.00D+00 NBFU=    57
 ExpMin= 1.61D-01 ExpMax= 3.05D+03 ExpMxC= 4.57D+02 IAcc=3 IRadAn=         5 AccDes= 0.00D+00
 Harris functional with IExCor= 4538 and IRadAn=       5 diagonalized for initial guess.
 HarFok:  IExCor= 4538 AccDes= 0.00D+00 IRadAn=         5 IDoV= 1 UseB2=F ITyADJ=14
 ICtDFT=  3500011 ScaDFX=  1.000000  1.000000  1.000000  1.000000
 FoFCou: FMM=F IPFlag=           0 FMFlag=      100000 FMFlg1=           0
         NFxFlg=           0 DoJE=T BraDBF=F KetDBF=T FulRan=T
         wScrn=  0.000000 ICntrl=       500 IOpCl=  0 I1Cent=   200000004 NGrid=           0
         NMat0=    1 NMatS0=      1 NMatT0=    0 NMatD0=    1 NMtDS0=    0 NMtDT0=    0
 Petite list used in FoFCou.
 Keep R1 ints in memory in canonical form, NReq=4494208.
 Requested convergence on RMS density matrix=1.00D-08 within 128 cycles.
 Requested convergence on MAX density matrix=1.00D-06.
 Requested convergence on             energy=1.00D-06.
 No special actions if energy rises.
 Integral accuracy reduced to 1.0D-05 until final iterations.
 Initial convergence to 1.0D-05 achieved.  Increase integral accuracy.
 SCF Done:  E(RwB97X) =  -117.863603487     A.U. after   13 cycles
            NFock= 13  Conv=0.37D-08     -V/T= 2.0106

 **********************************************************************

            Population analysis using the SCF density.

 **********************************************************************

 Orbital symmetries:
       Occupied  (A) (A) (A) (A) (A) (A) (A) (A) (A) (A) (A) (A)
       Virtual   (A) (A) (A) (A) (A) (A) (A) (A) (A) (A) (A) (A)
                 (A) (A) (A) (A) (A) (A) (A) (A) (A) (A) (A) (A)
                 (A) (A) (A) (A) (A) (A) (A) (A) (A) (A) (A) (A)
                 (A) (A) (A) (A) (A) (A) (A) (A) (A)
 The electronic state is 1-A.
 Alpha  occ. eigenvalues --  -10.27416 -10.26209 -10.25460  -0.91232  -0.80499
 Alpha  occ. eigenvalues --   -0.66220  -0.57209  -0.52767  -0.51441  -0.46853
 Alpha  occ. eigenvalues --   -0.44050  -0.34717
 Alpha virt. eigenvalues --    0.12305   0.20594   0.22457   0.24764   0.27138
 Alpha virt. eigenvalues --    0.28034   0.29729   0.38130   0.46871   0.60448
 Alpha virt. eigenvalues --    0.63930   0.64624   0.71753   0.73179   0.76922
 Alpha virt. eigenvalues --    0.79325   0.86214   0.89273   0.98064   0.99009
 Alpha virt. eigenvalues --    0.99941   1.03621   1.06653   1.07926   1.23304
 Alpha virt. eigenvalues --    1.36547   1.41072   1.50192   1.62114   1.82253
 Alpha virt. eigenvalues --    1.87506   1.98640   2.08618   2.17928   2.19339
 Alpha virt. eigenvalues --    2.32304   2.41189   2.41986   2.55184   2.60302
 Alpha virt. eigenvalues --    2.88510   2.94935   4.23882   4.33006   4.51268
          Condensed to atoms (all electrons):
               1          2          3          4          5          6
     1  C    5.096620   0.373074  -0.050365   0.384619   0.377774   0.378108
     2  C    0.373074   4.818748   0.687071  -0.033293  -0.035202  -0.037261
     3  C   -0.050365   0.687071   5.001648  -0.003023   0.001766  -0.001983
     4  H    0.384619  -0.033293  -0.003023   0.522877  -0.021923  -0.022686
     5  H    0.377774  -0.035202   0.001766  -0.021923   0.549763  -0.033921
     6  H    0.378108  -0.037261  -0.001983  -0.022686  -0.033921   0.549159
     7  H   -0.047570   0.378947  -0.035226   0.003252  -0.001811   0.000384
     8  H   -0.008437  -0.036334   0.384990   0.004356   0.000132   0.000220
     9  H    0.004914  -0.033669   0.379844   0.000085  -0.000183  -0.000177
               7          8          9
     1  C   -0.047570  -0.008437   0.004914
     2  C    0.378947  -0.036334  -0.033669
     3  C   -0.035226   0.384990   0.379844
     4  H    0.003252   0.004356   0.000085
     5  H   -0.001811   0.000132  -0.000183
     6  H    0.000384   0.000220  -0.000177
     7  H    0.553774   0.003817  -0.005965
     8  H    0.003817   0.525917  -0.031343
     9  H   -0.005965  -0.031343   0.535529
 Mulliken charges:
               1
     1  C   -0.508737
     2  C   -0.082080
     3  C   -0.364722
     4  H    0.165734
     5  H    0.163606
     6  H    0.168156
     7  H    0.150397
     8  H    0.156682
     9  H    0.150964
 Sum of Mulliken charges =  -0.00000
 Mulliken charges with hydrogens summed into heavy atoms:
               1
     1  C   -0.011241
     2  C    0.068317
     3  C   -0.057076
 Electronic spatial extent (au):  <R**2>=            194.5939
 Charge=              0.0000 electrons
 Dipole moment (field-independent basis, Debye):
    X=             -0.3548    Y=              0.1161    Z=              0.0219  Tot=              0.3740
 Quadrupole moment (field-independent basis, Debye-Ang):
   XX=            -19.2982   YY=            -18.2506   ZZ=            -21.4784
   XY=             -0.2627   XZ=             -0.0448   YZ=              0.0556
 Traceless Quadrupole moment (field-independent basis, Debye-Ang):
   XX=              0.3775   YY=              1.4251   ZZ=             -1.8027
   XY=             -0.2627   XZ=             -0.0448   YZ=              0.0556
 Octapole moment (field-independent basis, Debye-Ang**2):
  XXX=              1.7941  YYY=             -0.3551  ZZZ=              0.3727  XYY=              0.5009
  XXY=              0.9120  XXZ=             -0.0089  XZZ=             -2.1388  YZZ=              0.2235
  YYZ=             -0.3118  XYZ=              0.1042
 Hexadecapole moment (field-independent basis, Debye-Ang**3):
 XXXX=           -178.1795 YYYY=            -50.3815 ZZZZ=            -28.7589 XXXY=              0.5503
 XXXZ=              0.1874 YYYX=             -0.4563 YYYZ=              0.3774 ZZZX=             -0.6260
 ZZZY=             -0.0103 XXYY=            -38.3771 XXZZ=            -35.5314 YYZZ=            -14.8954
 XXYZ=             -0.2073 YYXZ=              0.3376 ZZXY=             -0.6250
 N-N= 7.074797854765D+01 E-N=-4.135480361113D+02  KE= 1.166271980481D+02
 1\1\GINC-NODE67\SP\RwB97X\6-31G(d)\C3H6\YANZ\22-Sep-2023\0\\# 6-31g(d)
  wb97x\\tmpdir/M2_ref_10.gjf\\0,1\C,0,6.847987,28.760885,37.581689\C,0
 ,6.530805,30.201104,37.31476\C,0,7.329002,30.98657,36.598694\H,0,7.687
 11493,28.36284253,36.98249381\H,0,5.935393,28.173842,37.433446\H,0,7.0
 72778,28.664014,38.655061\H,0,5.58205829,30.57418978,37.79205568\H,0,8
 .23643798,30.63643069,36.11590764\H,0,7.014081,32.019358,36.473568\\Ve
 rsion=ES64L-G16RevA.03\State=1-A\HF=-117.8636035\RMSD=3.675e-09\Dipole
 =-0.0585209,-0.1083421,0.0805421\Quadrupole=0.4345759,0.1349567,-0.569
 5326,-0.3179669,-1.0445841,-0.2859927\PG=C01 [X(C3H6)]\\@


 SEEN ON A WALL AT THE UNIVERSITY OF ILLINOIS AT CHICAGO CIRCLE:

 TO DO IS TO BE  -- SOCRATES
 TO BE IS TO DO  -- SARTRE
 OO BE DO BE DO  -- SINATRA
 Job cpu time:       0 days  0 hours  0 minutes 15.8 seconds.
 Elapsed time:       0 days  0 hours  0 minutes  8.0 seconds.
 File lengths (MBytes):  RWF=      6 Int=      0 D2E=      0 Chk=      1 Scr=      1
 Normal termination of Gaussian 16 at Fri Sep 22 16:29:22 2023.
