 Entering Gaussian System, Link 0=g16
 Initial command:
 /share/apps/gaussian/g16/l1.exe "/tmp/55568.mgr/Gau-353979.inp" -scrdir="/tmp/55568.mgr/"
 Entering Link 1 = /share/apps/gaussian/g16/l1.exe PID=    353980.
  
 Copyright (c) 1988,1990,1992,1993,1995,1998,2003,2009,2016,
            Gaussian, Inc.  All Rights Reserved.
  
 This is part of the Gaussian(R) 16 program.  It is based on
 the Gaussian(R) 09 system (copyright 2009, Gaussian, Inc.),
 the Gaussian(R) 03 system (copyright 2003, Gaussian, Inc.),
 the Gaussian(R) 98 system (copyright 1998, Gaussian, Inc.),
 the Gaussian(R) 94 system (copyright 1995, Gaussian, Inc.),
 the Gaussian 92(TM) system (copyright 1992, Gaussian, Inc.),
 the Gaussian 90(TM) system (copyright 1990, Gaussian, Inc.),
 the Gaussian 88(TM) system (copyright 1988, Gaussian, Inc.),
 the Gaussian 86(TM) system (copyright 1986, Carnegie Mellon
 University), and the Gaussian 82(TM) system (copyright 1983,
 Carnegie Mellon University). Gaussian is a federally registered
 trademark of Gaussian, Inc.
  
 This software contains proprietary and confidential information,
 including trade secrets, belonging to Gaussian, Inc.
  
 This software is provided under written license and may be
 used, copied, transmitted, or stored only in accord with that
 written license.
  
 The following legend is applicable only to US Government
 contracts under FAR:
  
                    RESTRICTED RIGHTS LEGEND
  
 Use, reproduction and disclosure by the US Government is
 subject to restrictions as set forth in subparagraphs (a)
 and (c) of the Commercial Computer Software - Restricted
 Rights clause in FAR 52.227-19.
  
 Gaussian, Inc.
 340 Quinnipiac St., Bldg. 40, Wallingford CT 06492
  
  
 ---------------------------------------------------------------
 Warning -- This program may not be used in any manner that
 competes with the business of Gaussian, Inc. or will provide
 assistance to any competitor of Gaussian, Inc.  The licensee
 of this program is prohibited from giving any competitor of
 Gaussian, Inc. access to this program.  By using this program,
 the user acknowledges that Gaussian, Inc. is engaged in the
 business of creating and licensing software in the field of
 computational chemistry and represents and warrants to the
 licensee that it is not a competitor of Gaussian, Inc. and that
 it will not use this program in any manner prohibited above.
 ---------------------------------------------------------------
  

 Cite this work as:
 Gaussian 16, Revision A.03,
 M. J. Frisch, G. W. Trucks, H. B. Schlegel, G. E. Scuseria, 
 M. A. Robb, J. R. Cheeseman, G. Scalmani, V. Barone, 
 G. A. Petersson, H. Nakatsuji, X. Li, M. Caricato, A. V. Marenich, 
 J. Bloino, B. G. Janesko, R. Gomperts, B. Mennucci, H. P. Hratchian, 
 J. V. Ortiz, A. F. Izmaylov, J. L. Sonnenberg, D. Williams-Young, 
 F. Ding, F. Lipparini, F. Egidi, J. Goings, B. Peng, A. Petrone, 
 T. Henderson, D. Ranasinghe, V. G. Zakrzewski, J. Gao, N. Rega, 
 G. Zheng, W. Liang, M. Hada, M. Ehara, K. Toyota, R. Fukuda, 
 J. Hasegawa, M. Ishida, T. Nakajima, Y. Honda, O. Kitao, H. Nakai, 
 T. Vreven, K. Throssell, J. A. Montgomery, Jr., J. E. Peralta, 
 F. Ogliaro, M. J. Bearpark, J. J. Heyd, E. N. Brothers, K. N. Kudin, 
 V. N. Staroverov, T. A. Keith, R. Kobayashi, J. Normand, 
 K. Raghavachari, A. P. Rendell, J. C. Burant, S. S. Iyengar, 
 J. Tomasi, M. Cossi, J. M. Millam, M. Klene, C. Adamo, R. Cammi, 
 J. W. Ochterski, R. L. Martin, K. Morokuma, O. Farkas, 
 J. B. Foresman, and D. J. Fox, Gaussian, Inc., Wallingford CT, 2016.
 
 ******************************************
 Gaussian 16:  ES64L-G16RevA.03 25-Dec-2016
                22-Sep-2023 
 ******************************************
 %nprocshared=2
 Will use up to    2 processors via shared memory.
 %mem=2GB
 ----------------
 # 6-31g(d) wb97x
 ----------------
 1/38=1,172=1/1;
 2/12=2,17=6,18=5,40=1/2;
 3/5=1,6=6,7=1,11=2,25=1,30=1,74=-57/1,2,3;
 4//1;
 5/5=2,38=5/2;
 6/7=2,8=2,9=2,10=2,28=1/1;
 99/5=1,9=1/99;
 --------------------
 tmpdir/M2_ref_94.gjf
 --------------------
 Symbolic Z-matrix:
 Charge =  0 Multiplicity = 1
 C                     11.0078   27.71651   35.68496 
 C                     12.27388   27.80505   34.86911 
 H                     13.10037   27.42272   35.47368 
 H                     10.46796   28.61456   35.80141 
 O                     10.66993   26.61097   36.14557 
 H                     12.17347   27.14941   33.99997 
 H                     12.50771   28.81831   34.53409 
 
                          Input orientation:                          
 ---------------------------------------------------------------------
 Center     Atomic      Atomic             Coordinates (Angstroms)
 Number     Number       Type             X           Y           Z
 ---------------------------------------------------------------------
      1          6           0       11.007796   27.716505   35.684957
      2          6           0       12.273880   27.805053   34.869110
      3          1           0       13.100371   27.422715   35.473677
      4          1           0       10.467961   28.614564   35.801414
      5          8           0       10.669927   26.610971   36.145570
      6          1           0       12.173475   27.149411   33.999970
      7          1           0       12.507711   28.818308   34.534092
 ---------------------------------------------------------------------
                    Distance matrix (angstroms):
                    1          2          3          4          5
     1  C    0.000000
     2  C    1.508780   0.000000
     3  H    2.123634   1.093056   0.000000
     4  H    1.054275   2.187657   2.908178   0.000000
     5  O    1.244398   2.372308   2.649043   2.042944   0.000000
     6  H    2.125931   1.093322   1.762284   2.881086   2.674729
     7  H    2.188197   1.092520   1.783745   2.410020   3.293425
                    6          7
     6  H    0.000000
     7  H    1.783877   0.000000
 Stoichiometry    C2H4O
 Framework group  C1[X(C2H4O)]
 Deg. of freedom    15
 Full point group                 C1      NOp   1
 Largest Abelian subgroup         C1      NOp   1
 Largest concise Abelian subgroup C1      NOp   1
                         Standard orientation:                         
 ---------------------------------------------------------------------
 Center     Atomic      Atomic             Coordinates (Angstroms)
 Number     Number       Type             X           Y           Z
 ---------------------------------------------------------------------
      1          6           0        0.228035    0.459621   -0.003406
      2          6           0       -1.152033   -0.150146    0.000215
      3          1           0       -1.234643   -0.819948   -0.859617
      4          1           0        0.269104    1.513029    0.008407
      5          8           0        1.215704   -0.297360    0.000692
      6          1           0       -1.260001   -0.759627    0.901452
      7          1           0       -1.956105    0.588575   -0.036636
 ---------------------------------------------------------------------
 Rotational constants (GHZ):          52.3195613          10.4275777           9.1896123
 Standard basis: 6-31G(d) (6D, 7F)
 There are    53 symmetry adapted cartesian basis functions of A   symmetry.
 There are    53 symmetry adapted basis functions of A   symmetry.
    53 basis functions,   100 primitive gaussians,    53 cartesian basis functions
    12 alpha electrons       12 beta electrons
       nuclear repulsion energy        69.3801469447 Hartrees.
 NAtoms=    7 NActive=    7 NUniq=    7 SFac= 1.00D+00 NAtFMM=   60 NAOKFM=F Big=F
 Integral buffers will be    131072 words long.
 Raffenetti 2 integral format.
 Two-electron integral symmetry is turned on.
 One-electron integrals computed using PRISM.
 NBasis=    53 RedAO= T EigKep=  6.32D-03  NBF=    53
 NBsUse=    53 1.00D-06 EigRej= -1.00D+00 NBFU=    53
 ExpMin= 1.61D-01 ExpMax= 5.48D+03 ExpMxC= 8.25D+02 IAcc=3 IRadAn=         5 AccDes= 0.00D+00
 Harris functional with IExCor= 4538 and IRadAn=       5 diagonalized for initial guess.
 HarFok:  IExCor= 4538 AccDes= 0.00D+00 IRadAn=         5 IDoV= 1 UseB2=F ITyADJ=14
 ICtDFT=  3500011 ScaDFX=  1.000000  1.000000  1.000000  1.000000
 FoFCou: FMM=F IPFlag=           0 FMFlag=      100000 FMFlg1=           0
         NFxFlg=           0 DoJE=T BraDBF=F KetDBF=T FulRan=T
         wScrn=  0.000000 ICntrl=       500 IOpCl=  0 I1Cent=   200000004 NGrid=           0
         NMat0=    1 NMatS0=      1 NMatT0=    0 NMatD0=    1 NMtDS0=    0 NMtDT0=    0
 Petite list used in FoFCou.
 Keep R1 ints in memory in canonical form, NReq=3800804.
 Requested convergence on RMS density matrix=1.00D-08 within 128 cycles.
 Requested convergence on MAX density matrix=1.00D-06.
 Requested convergence on             energy=1.00D-06.
 No special actions if energy rises.
 Integral accuracy reduced to 1.0D-05 until final iterations.
 Initial convergence to 1.0D-05 achieved.  Increase integral accuracy.
 SCF Done:  E(RwB97X) =  -153.779152764     A.U. after   14 cycles
            NFock= 14  Conv=0.64D-08     -V/T= 2.0093

 **********************************************************************

            Population analysis using the SCF density.

 **********************************************************************

 Orbital symmetries:
       Occupied  (A) (A) (A) (A) (A) (A) (A) (A) (A) (A) (A) (A)
       Virtual   (A) (A) (A) (A) (A) (A) (A) (A) (A) (A) (A) (A)
                 (A) (A) (A) (A) (A) (A) (A) (A) (A) (A) (A) (A)
                 (A) (A) (A) (A) (A) (A) (A) (A) (A) (A) (A) (A)
                 (A) (A) (A) (A) (A)
 The electronic state is 1-A.
 Alpha  occ. eigenvalues --  -19.21625 -10.36543 -10.27621  -1.15334  -0.87960
 Alpha  occ. eigenvalues --   -0.71688  -0.58779  -0.55181  -0.53507  -0.50224
 Alpha  occ. eigenvalues --   -0.45395  -0.35770
 Alpha virt. eigenvalues --    0.06188   0.21007   0.22476   0.27149   0.27343
 Alpha virt. eigenvalues --    0.33661   0.37377   0.63210   0.64095   0.68359
 Alpha virt. eigenvalues --    0.70665   0.75431   0.82523   0.88478   0.96334
 Alpha virt. eigenvalues --    0.97374   0.99289   1.05407   1.05986   1.10645
 Alpha virt. eigenvalues --    1.19278   1.30844   1.49326   1.55549   1.60668
 Alpha virt. eigenvalues --    1.82655   1.91853   1.93366   1.96799   2.14455
 Alpha virt. eigenvalues --    2.24584   2.30795   2.34870   2.37708   2.64683
 Alpha virt. eigenvalues --    2.66544   2.94958   3.02664   3.86128   4.20449
 Alpha virt. eigenvalues --    4.45732
          Condensed to atoms (all electrons):
               1          2          3          4          5          6
     1  C    4.618613   0.324798  -0.022315   0.365292   0.530691  -0.021837
     2  C    0.324798   5.325842   0.371348  -0.103224  -0.081146   0.371706
     3  H   -0.022315   0.371348   0.480744   0.003742  -0.000657  -0.015432
     4  H    0.365292  -0.103224   0.003742   0.613883  -0.041993   0.003551
     5  O    0.530691  -0.081146  -0.000657  -0.041993   7.986873  -0.001219
     6  H   -0.021837   0.371706  -0.015432   0.003551  -0.001219   0.480637
     7  H   -0.017902   0.344293  -0.022103   0.005578   0.003651  -0.022337
               7
     1  C   -0.017902
     2  C    0.344293
     3  H   -0.022103
     4  H    0.005578
     5  O    0.003651
     6  H   -0.022337
     7  H    0.544443
 Mulliken charges:
               1
     1  C    0.222661
     2  C   -0.553616
     3  H    0.204674
     4  H    0.153172
     5  O   -0.396200
     6  H    0.204932
     7  H    0.164377
 Sum of Mulliken charges =  -0.00000
 Mulliken charges with hydrogens summed into heavy atoms:
               1
     1  C    0.375832
     2  C    0.020368
     5  O   -0.396200
 Electronic spatial extent (au):  <R**2>=            165.1553
 Charge=             -0.0000 electrons
 Dipole moment (field-independent basis, Debye):
    X=             -2.4107    Y=              1.2433    Z=              0.0086  Tot=              2.7125
 Quadrupole moment (field-independent basis, Debye-Ang):
   XX=            -20.8911   YY=            -17.2584   ZZ=            -17.5230
   XY=              1.1354   XZ=             -0.0181   YZ=             -0.0017
 Traceless Quadrupole moment (field-independent basis, Debye-Ang):
   XX=             -2.3336   YY=              1.2991   ZZ=              1.0345
   XY=              1.1354   XZ=             -0.0181   YZ=             -0.0017
 Octapole moment (field-independent basis, Debye-Ang**2):
  XXX=             -0.5357  YYY=              0.7466  ZZZ=              0.0993  XYY=              0.7363
  XXY=              0.6433  XXZ=              0.0088  XZZ=              1.1179  YZZ=             -1.1836
  YYZ=             -0.0396  XYZ=              0.0296
 Hexadecapole moment (field-independent basis, Debye-Ang**3):
 XXXX=           -144.2585 YYYY=            -41.0939 ZZZZ=            -21.6662 XXXY=             -2.2716
 XXXZ=              0.0199 YYYX=             -0.2552 YYYZ=              0.1021 ZZZX=             -0.1417
 ZZZY=             -0.0458 XXYY=            -29.4970 XXZZ=            -26.3632 YYZZ=            -10.1262
 XXYZ=             -0.0918 YYXZ=              0.0725 ZZXY=              0.7532
 N-N= 6.938014694472D+01 E-N=-4.978575450947D+02  KE= 1.523610506478D+02
 1\1\GINC-NODE67\SP\RwB97X\6-31G(d)\C2H4O1\YANZ\22-Sep-2023\0\\# 6-31g(
 d) wb97x\\tmpdir/M2_ref_94.gjf\\0,1\C,0,11.007796,27.716505,35.684957\
 C,0,12.27388,27.805053,34.86911\H,0,13.100371,27.422715,35.473677\H,0,
 10.4679605,28.61456423,35.80141396\O,0,10.669927,26.610971,36.14557\H,
 0,12.173475,27.149411,33.99997\H,0,12.507711,28.818308,34.534092\\Vers
 ion=ES64L-G16RevA.03\State=1-A\HF=-153.7791528\RMSD=6.406e-09\Dipole=0
 .4345638,0.8528562,-0.4718549\Quadrupole=0.123661,-0.2530455,0.1293845
 ,-1.2222323,0.6724816,0.9929882\PG=C01 [X(C2H4O1)]\\@


 I WISH TO HAVE NO CONNECTION WITH ANY SHIP THAT DOES NOT SAIL FAST,
 FOR I INTEND TO GO IN HARM'S WAY.
     -- JOHN PAUL JONES, USN 1747-1792
 Job cpu time:       0 days  0 hours  0 minutes 12.6 seconds.
 Elapsed time:       0 days  0 hours  0 minutes  6.3 seconds.
 File lengths (MBytes):  RWF=      6 Int=      0 D2E=      0 Chk=      1 Scr=      1
 Normal termination of Gaussian 16 at Fri Sep 22 16:29:56 2023.
