 Entering Gaussian System, Link 0=g16
 Initial command:
 /share/apps/gaussian/g16/l1.exe "/tmp/55568.mgr/Gau-353645.inp" -scrdir="/tmp/55568.mgr/"
 Entering Link 1 = /share/apps/gaussian/g16/l1.exe PID=    353646.
  
 Copyright (c) 1988,1990,1992,1993,1995,1998,2003,2009,2016,
            Gaussian, Inc.  All Rights Reserved.
  
 This is part of the Gaussian(R) 16 program.  It is based on
 the Gaussian(R) 09 system (copyright 2009, Gaussian, Inc.),
 the Gaussian(R) 03 system (copyright 2003, Gaussian, Inc.),
 the Gaussian(R) 98 system (copyright 1998, Gaussian, Inc.),
 the Gaussian(R) 94 system (copyright 1995, Gaussian, Inc.),
 the Gaussian 92(TM) system (copyright 1992, Gaussian, Inc.),
 the Gaussian 90(TM) system (copyright 1990, Gaussian, Inc.),
 the Gaussian 88(TM) system (copyright 1988, Gaussian, Inc.),
 the Gaussian 86(TM) system (copyright 1986, Carnegie Mellon
 University), and the Gaussian 82(TM) system (copyright 1983,
 Carnegie Mellon University). Gaussian is a federally registered
 trademark of Gaussian, Inc.
  
 This software contains proprietary and confidential information,
 including trade secrets, belonging to Gaussian, Inc.
  
 This software is provided under written license and may be
 used, copied, transmitted, or stored only in accord with that
 written license.
  
 The following legend is applicable only to US Government
 contracts under FAR:
  
                    RESTRICTED RIGHTS LEGEND
  
 Use, reproduction and disclosure by the US Government is
 subject to restrictions as set forth in subparagraphs (a)
 and (c) of the Commercial Computer Software - Restricted
 Rights clause in FAR 52.227-19.
  
 Gaussian, Inc.
 340 Quinnipiac St., Bldg. 40, Wallingford CT 06492
  
  
 ---------------------------------------------------------------
 Warning -- This program may not be used in any manner that
 competes with the business of Gaussian, Inc. or will provide
 assistance to any competitor of Gaussian, Inc.  The licensee
 of this program is prohibited from giving any competitor of
 Gaussian, Inc. access to this program.  By using this program,
 the user acknowledges that Gaussian, Inc. is engaged in the
 business of creating and licensing software in the field of
 computational chemistry and represents and warrants to the
 licensee that it is not a competitor of Gaussian, Inc. and that
 it will not use this program in any manner prohibited above.
 ---------------------------------------------------------------
  

 Cite this work as:
 Gaussian 16, Revision A.03,
 M. J. Frisch, G. W. Trucks, H. B. Schlegel, G. E. Scuseria, 
 M. A. Robb, J. R. Cheeseman, G. Scalmani, V. Barone, 
 G. A. Petersson, H. Nakatsuji, X. Li, M. Caricato, A. V. Marenich, 
 J. Bloino, B. G. Janesko, R. Gomperts, B. Mennucci, H. P. Hratchian, 
 J. V. Ortiz, A. F. Izmaylov, J. L. Sonnenberg, D. Williams-Young, 
 F. Ding, F. Lipparini, F. Egidi, J. Goings, B. Peng, A. Petrone, 
 T. Henderson, D. Ranasinghe, V. G. Zakrzewski, J. Gao, N. Rega, 
 G. Zheng, W. Liang, M. Hada, M. Ehara, K. Toyota, R. Fukuda, 
 J. Hasegawa, M. Ishida, T. Nakajima, Y. Honda, O. Kitao, H. Nakai, 
 T. Vreven, K. Throssell, J. A. Montgomery, Jr., J. E. Peralta, 
 F. Ogliaro, M. J. Bearpark, J. J. Heyd, E. N. Brothers, K. N. Kudin, 
 V. N. Staroverov, T. A. Keith, R. Kobayashi, J. Normand, 
 K. Raghavachari, A. P. Rendell, J. C. Burant, S. S. Iyengar, 
 J. Tomasi, M. Cossi, J. M. Millam, M. Klene, C. Adamo, R. Cammi, 
 J. W. Ochterski, R. L. Martin, K. Morokuma, O. Farkas, 
 J. B. Foresman, and D. J. Fox, Gaussian, Inc., Wallingford CT, 2016.
 
 ******************************************
 Gaussian 16:  ES64L-G16RevA.03 25-Dec-2016
                22-Sep-2023 
 ******************************************
 %nprocshared=2
 Will use up to    2 processors via shared memory.
 %mem=2GB
 ----------------
 # 6-31g(d) wb97x
 ----------------
 1/38=1,172=1/1;
 2/12=2,17=6,18=5,40=1/2;
 3/5=1,6=6,7=1,11=2,25=1,30=1,74=-57/1,2,3;
 4//1;
 5/5=2,38=5/2;
 6/7=2,8=2,9=2,10=2,28=1/1;
 99/5=1,9=1/99;
 --------------------
 tmpdir/M2_ref_79.gjf
 --------------------
 Symbolic Z-matrix:
 Charge =  0 Multiplicity = 1
 C                     9.79769   32.27465   34.79924 
 C                     8.69479   33.33164   34.69748 
 C                     8.6207    34.28202   35.89085 
 H                     9.68564   31.58194   35.7431 
 H                     10.81026   32.71239   34.85388 
 H                     9.74144   31.63216   33.9002 
 H                     7.731     32.82662   34.56492 
 H                     8.86706   33.89626   33.77136 
 H                     7.73063   34.91407   35.82268 
 H                     9.49422   34.94152   35.93921 
 H                     8.56128   33.72644   36.8319 
 
                          Input orientation:                          
 ---------------------------------------------------------------------
 Center     Atomic      Atomic             Coordinates (Angstroms)
 Number     Number       Type             X           Y           Z
 ---------------------------------------------------------------------
      1          6           0        9.797688   32.274648   34.799237
      2          6           0        8.694786   33.331639   34.697477
      3          6           0        8.620704   34.282025   35.890846
      4          1           0        9.685642   31.581937   35.743097
      5          1           0       10.810260   32.712393   34.853880
      6          1           0        9.741440   31.632164   33.900198
      7          1           0        7.730997   32.826618   34.564923
      8          1           0        8.867058   33.896258   33.771357
      9          1           0        7.730628   34.914070   35.822681
     10          1           0        9.494224   34.941523   35.939211
     11          1           0        8.561284   33.726441   36.831900
 ---------------------------------------------------------------------
                    Distance matrix (angstroms):
                    1          2          3          4          5
     1  C    0.000000
     2  C    1.531006   0.000000
     3  C    2.570304   1.527367   0.000000
     4  H    1.176127   2.266401   2.906269   0.000000
     5  H    1.104495   2.209787   2.886728   1.825761   0.000000
     6  H    1.106445   2.149268   3.498641   1.844428   1.794096
     7  H    2.151926   1.096132   2.160523   2.599608   3.094900
     8  H    2.133595   1.098258   2.168350   3.148638   2.519807
     9  H    3.505242   2.167896   1.093784   3.864133   3.907697
    10  H    2.916137   2.184658   1.095588   3.370745   2.806941
    11  H    2.787134   2.174731   1.094435   2.654914   3.162080
                    6          7          8          9         10
     6  H    0.000000
     7  H    2.431144   0.000000
     8  H    2.430487   1.750575   0.000000
     9  H    4.302350   2.437091   2.556432   0.000000
    10  H    3.894939   3.077411   2.487068   1.767655   0.000000
    11  H    3.791258   2.576479   3.080464   1.766062   1.773047
                   11
    11  H    0.000000
 Stoichiometry    C3H8
 Framework group  C1[X(C3H8)]
 Deg. of freedom    27
 Full point group                 C1      NOp   1
 Largest Abelian subgroup         C1      NOp   1
 Largest concise Abelian subgroup C1      NOp   1
                         Standard orientation:                         
 ---------------------------------------------------------------------
 Center     Atomic      Atomic             Coordinates (Angstroms)
 Number     Number       Type             X           Y           Z
 ---------------------------------------------------------------------
      1          6           0        1.282850   -0.254726    0.010214
      2          6           0       -0.005477    0.572220   -0.008509
      3          6           0       -1.287445   -0.257990    0.004165
      4          1           0        1.374771   -0.984424   -0.907591
      5          1           0        1.380108   -0.880393    0.915196
      6          1           0        2.139891    0.444084   -0.026757
      7          1           0        0.005143    1.225041   -0.888974
      8          1           0        0.022874    1.241977    0.861429
      9          1           0       -2.160139    0.382192   -0.153738
     10          1           0       -1.424633   -0.778118    0.958608
     11          1           0       -1.277587   -1.007382   -0.793394
 ---------------------------------------------------------------------
 Rotational constants (GHZ):          29.5310639           8.2473650           7.3477716
 Standard basis: 6-31G(d) (6D, 7F)
 There are    61 symmetry adapted cartesian basis functions of A   symmetry.
 There are    61 symmetry adapted basis functions of A   symmetry.
    61 basis functions,   116 primitive gaussians,    61 cartesian basis functions
    13 alpha electrons       13 beta electrons
       nuclear repulsion energy        81.9134207510 Hartrees.
 NAtoms=   11 NActive=   11 NUniq=   11 SFac= 1.00D+00 NAtFMM=   60 NAOKFM=F Big=F
 Integral buffers will be    131072 words long.
 Raffenetti 2 integral format.
 Two-electron integral symmetry is turned on.
 One-electron integrals computed using PRISM.
 NBasis=    61 RedAO= T EigKep=  6.16D-03  NBF=    61
 NBsUse=    61 1.00D-06 EigRej= -1.00D+00 NBFU=    61
 ExpMin= 1.61D-01 ExpMax= 3.05D+03 ExpMxC= 4.57D+02 IAcc=3 IRadAn=         5 AccDes= 0.00D+00
 Harris functional with IExCor= 4538 and IRadAn=       5 diagonalized for initial guess.
 HarFok:  IExCor= 4538 AccDes= 0.00D+00 IRadAn=         5 IDoV= 1 UseB2=F ITyADJ=14
 ICtDFT=  3500011 ScaDFX=  1.000000  1.000000  1.000000  1.000000
 FoFCou: FMM=F IPFlag=           0 FMFlag=      100000 FMFlg1=           0
         NFxFlg=           0 DoJE=T BraDBF=F KetDBF=T FulRan=T
         wScrn=  0.000000 ICntrl=       500 IOpCl=  0 I1Cent=   200000004 NGrid=           0
         NMat0=    1 NMatS0=      1 NMatT0=    0 NMatD0=    1 NMtDS0=    0 NMtDT0=    0
 Petite list used in FoFCou.
 Keep R1 ints in memory in canonical form, NReq=5346468.
 Requested convergence on RMS density matrix=1.00D-08 within 128 cycles.
 Requested convergence on MAX density matrix=1.00D-06.
 Requested convergence on             energy=1.00D-06.
 No special actions if energy rises.
 Integral accuracy reduced to 1.0D-05 until final iterations.
 Initial convergence to 1.0D-05 achieved.  Increase integral accuracy.
 SCF Done:  E(RwB97X) =  -119.101472169     A.U. after   12 cycles
            NFock= 12  Conv=0.25D-08     -V/T= 2.0115

 **********************************************************************

            Population analysis using the SCF density.

 **********************************************************************

 Orbital symmetries:
       Occupied  (A) (A) (A) (A) (A) (A) (A) (A) (A) (A) (A) (A)
                 (A)
       Virtual   (A) (A) (A) (A) (A) (A) (A) (A) (A) (A) (A) (A)
                 (A) (A) (A) (A) (A) (A) (A) (A) (A) (A) (A) (A)
                 (A) (A) (A) (A) (A) (A) (A) (A) (A) (A) (A) (A)
                 (A) (A) (A) (A) (A) (A) (A) (A) (A) (A) (A) (A)
 The electronic state is 1-A.
 Alpha  occ. eigenvalues --  -10.26322 -10.26246 -10.25247  -0.90575  -0.80110
 Alpha  occ. eigenvalues --   -0.69871  -0.56261  -0.54041  -0.50332  -0.47777
 Alpha  occ. eigenvalues --   -0.43437  -0.43169  -0.42115
 Alpha virt. eigenvalues --    0.18706   0.23404   0.24219   0.24462   0.27031
 Alpha virt. eigenvalues --    0.28289   0.28720   0.29981   0.32398   0.36603
 Alpha virt. eigenvalues --    0.61482   0.62682   0.64995   0.67406   0.70152
 Alpha virt. eigenvalues --    0.78404   0.82385   0.85465   0.88199   0.97894
 Alpha virt. eigenvalues --    0.99348   1.00456   1.01378   1.03567   1.07241
 Alpha virt. eigenvalues --    1.08331   1.09624   1.14464   1.46837   1.56783
 Alpha virt. eigenvalues --    1.58255   1.68280   1.84933   2.00497   2.03704
 Alpha virt. eigenvalues --    2.07512   2.12384   2.21246   2.31533   2.35937
 Alpha virt. eigenvalues --    2.43662   2.49236   2.51291   2.69169   2.78368
 Alpha virt. eigenvalues --    4.25643   4.39776   4.58613
          Condensed to atoms (all electrons):
               1          2          3          4          5          6
     1  C    5.089254   0.363238  -0.051802   0.375305   0.382835   0.380748
     2  C    0.363238   4.959887   0.366434  -0.031827  -0.033834  -0.033998
     3  C   -0.051802   0.366434   5.073106  -0.003618  -0.002240   0.004381
     4  H    0.375305  -0.031827  -0.003618   0.577717  -0.029284  -0.025134
     5  H    0.382835  -0.033834  -0.002240  -0.029284   0.553296  -0.027403
     6  H    0.380748  -0.033998   0.004381  -0.025134  -0.027403   0.553246
     7  H   -0.038458   0.392999  -0.038250  -0.003426   0.004379  -0.003334
     8  H   -0.040906   0.390707  -0.036727   0.004167  -0.004065  -0.002571
     9  H    0.004220  -0.030583   0.384010  -0.000012  -0.000044  -0.000143
    10  H   -0.002044  -0.033303   0.385707  -0.000178   0.002695  -0.000062
    11  H   -0.004071  -0.036104   0.385810   0.004038  -0.000225   0.000009
               7          8          9         10         11
     1  C   -0.038458  -0.040906   0.004220  -0.002044  -0.004071
     2  C    0.392999   0.390707  -0.030583  -0.033303  -0.036104
     3  C   -0.038250  -0.036727   0.384010   0.385707   0.385810
     4  H   -0.003426   0.004167  -0.000012  -0.000178   0.004038
     5  H    0.004379  -0.004065  -0.000044   0.002695  -0.000225
     6  H   -0.003334  -0.002571  -0.000143  -0.000062   0.000009
     7  H    0.574415  -0.035007  -0.003947   0.004433  -0.002735
     8  H   -0.035007   0.578705  -0.001563  -0.005027   0.004536
     9  H   -0.003947  -0.001563   0.548361  -0.027807  -0.027993
    10  H    0.004433  -0.005027  -0.027807   0.550990  -0.028709
    11  H   -0.002735   0.004536  -0.027993  -0.028709   0.552590
 Mulliken charges:
               1
     1  C   -0.458321
     2  C   -0.273615
     3  C   -0.466810
     4  H    0.132252
     5  H    0.153891
     6  H    0.154260
     7  H    0.148932
     8  H    0.147750
     9  H    0.155501
    10  H    0.153306
    11  H    0.152854
 Sum of Mulliken charges =   0.00000
 Mulliken charges with hydrogens summed into heavy atoms:
               1
     1  C   -0.017917
     2  C    0.023067
     3  C   -0.005150
 Electronic spatial extent (au):  <R**2>=            229.5819
 Charge=              0.0000 electrons
 Dipole moment (field-independent basis, Debye):
    X=             -0.0282    Y=              0.1198    Z=              0.0478  Tot=              0.1320
 Quadrupole moment (field-independent basis, Debye-Ang):
   XX=            -22.0183   YY=            -21.5304   ZZ=            -21.2742
   XY=              0.0719   XZ=              0.0840   YZ=             -0.0387
 Traceless Quadrupole moment (field-independent basis, Debye-Ang):
   XX=             -0.4107   YY=              0.0772   ZZ=              0.3335
   XY=              0.0719   XZ=              0.0840   YZ=             -0.0387
 Octapole moment (field-independent basis, Debye-Ang**2):
  XXX=             -0.7494  YYY=              0.4057  ZZZ=              0.4424  XYY=              0.0668
  XXY=              1.4293  XXZ=              0.0569  XZZ=             -0.1801  YZZ=             -0.4867
  YYZ=             -0.1623  XYZ=              0.0869
 Hexadecapole moment (field-independent basis, Debye-Ang**3):
 XXXX=           -205.7736 YYYY=            -68.9335 ZZZZ=            -42.9860 XXXY=              0.4717
 XXXZ=              0.6471 YYYX=              0.2995 YYYZ=              0.1929 ZZZX=             -0.0578
 ZZZY=             -0.3309 XXYY=            -44.7950 XXZZ=            -41.8091 YYZZ=            -16.5824
 XXYZ=             -0.4942 YYXZ=              0.1978 ZZXY=             -0.0403
 N-N= 8.191342075096D+01 E-N=-4.382269904599D+02  KE= 1.177464273406D+02
 1\1\GINC-NODE67\SP\RwB97X\6-31G(d)\C3H8\YANZ\22-Sep-2023\0\\# 6-31g(d)
  wb97x\\tmpdir/M2_ref_79.gjf\\0,1\C,0,9.797688,32.274648,34.799237\C,0
 ,8.694786,33.331639,34.697477\C,0,8.620704,34.282025,35.890846\H,0,9.6
 8564206,31.58193706,35.7430972\H,0,10.81026046,32.71239272,34.85388026
 \H,0,9.74144,31.632164,33.900198\H,0,7.730997,32.826618,34.564923\H,0,
 8.867058,33.896258,33.771357\H,0,7.730628,34.91407,35.822681\H,0,9.494
 224,34.941523,35.939211\H,0,8.561284,33.726441,36.8319\\Version=ES64L-
 G16RevA.03\State=1-A\HF=-119.1014722\RMSD=2.481e-09\Dipole=-0.0214522,
 0.0237494,-0.0409161\Quadrupole=0.0923327,-0.1610157,0.068683,0.228846
 8,-0.0128701,-0.120247\PG=C01 [X(C3H8)]\\@


 Everywhere is walking distance if you have the time.
                                    -- Steven Wright
 Job cpu time:       0 days  0 hours  0 minutes 18.9 seconds.
 Elapsed time:       0 days  0 hours  0 minutes  9.5 seconds.
 File lengths (MBytes):  RWF=      6 Int=      0 D2E=      0 Chk=      1 Scr=      1
 Normal termination of Gaussian 16 at Fri Sep 22 16:29:48 2023.
