 Entering Gaussian System, Link 0=g16
 Initial command:
 /share/apps/gaussian/g16/l1.exe "/tmp/55568.mgr/Gau-353866.inp" -scrdir="/tmp/55568.mgr/"
 Entering Link 1 = /share/apps/gaussian/g16/l1.exe PID=    353867.
  
 Copyright (c) 1988,1990,1992,1993,1995,1998,2003,2009,2016,
            Gaussian, Inc.  All Rights Reserved.
  
 This is part of the Gaussian(R) 16 program.  It is based on
 the Gaussian(R) 09 system (copyright 2009, Gaussian, Inc.),
 the Gaussian(R) 03 system (copyright 2003, Gaussian, Inc.),
 the Gaussian(R) 98 system (copyright 1998, Gaussian, Inc.),
 the Gaussian(R) 94 system (copyright 1995, Gaussian, Inc.),
 the Gaussian 92(TM) system (copyright 1992, Gaussian, Inc.),
 the Gaussian 90(TM) system (copyright 1990, Gaussian, Inc.),
 the Gaussian 88(TM) system (copyright 1988, Gaussian, Inc.),
 the Gaussian 86(TM) system (copyright 1986, Carnegie Mellon
 University), and the Gaussian 82(TM) system (copyright 1983,
 Carnegie Mellon University). Gaussian is a federally registered
 trademark of Gaussian, Inc.
  
 This software contains proprietary and confidential information,
 including trade secrets, belonging to Gaussian, Inc.
  
 This software is provided under written license and may be
 used, copied, transmitted, or stored only in accord with that
 written license.
  
 The following legend is applicable only to US Government
 contracts under FAR:
  
                    RESTRICTED RIGHTS LEGEND
  
 Use, reproduction and disclosure by the US Government is
 subject to restrictions as set forth in subparagraphs (a)
 and (c) of the Commercial Computer Software - Restricted
 Rights clause in FAR 52.227-19.
  
 Gaussian, Inc.
 340 Quinnipiac St., Bldg. 40, Wallingford CT 06492
  
  
 ---------------------------------------------------------------
 Warning -- This program may not be used in any manner that
 competes with the business of Gaussian, Inc. or will provide
 assistance to any competitor of Gaussian, Inc.  The licensee
 of this program is prohibited from giving any competitor of
 Gaussian, Inc. access to this program.  By using this program,
 the user acknowledges that Gaussian, Inc. is engaged in the
 business of creating and licensing software in the field of
 computational chemistry and represents and warrants to the
 licensee that it is not a competitor of Gaussian, Inc. and that
 it will not use this program in any manner prohibited above.
 ---------------------------------------------------------------
  

 Cite this work as:
 Gaussian 16, Revision A.03,
 M. J. Frisch, G. W. Trucks, H. B. Schlegel, G. E. Scuseria, 
 M. A. Robb, J. R. Cheeseman, G. Scalmani, V. Barone, 
 G. A. Petersson, H. Nakatsuji, X. Li, M. Caricato, A. V. Marenich, 
 J. Bloino, B. G. Janesko, R. Gomperts, B. Mennucci, H. P. Hratchian, 
 J. V. Ortiz, A. F. Izmaylov, J. L. Sonnenberg, D. Williams-Young, 
 F. Ding, F. Lipparini, F. Egidi, J. Goings, B. Peng, A. Petrone, 
 T. Henderson, D. Ranasinghe, V. G. Zakrzewski, J. Gao, N. Rega, 
 G. Zheng, W. Liang, M. Hada, M. Ehara, K. Toyota, R. Fukuda, 
 J. Hasegawa, M. Ishida, T. Nakajima, Y. Honda, O. Kitao, H. Nakai, 
 T. Vreven, K. Throssell, J. A. Montgomery, Jr., J. E. Peralta, 
 F. Ogliaro, M. J. Bearpark, J. J. Heyd, E. N. Brothers, K. N. Kudin, 
 V. N. Staroverov, T. A. Keith, R. Kobayashi, J. Normand, 
 K. Raghavachari, A. P. Rendell, J. C. Burant, S. S. Iyengar, 
 J. Tomasi, M. Cossi, J. M. Millam, M. Klene, C. Adamo, R. Cammi, 
 J. W. Ochterski, R. L. Martin, K. Morokuma, O. Farkas, 
 J. B. Foresman, and D. J. Fox, Gaussian, Inc., Wallingford CT, 2016.
 
 ******************************************
 Gaussian 16:  ES64L-G16RevA.03 25-Dec-2016
                22-Sep-2023 
 ******************************************
 %nprocshared=2
 Will use up to    2 processors via shared memory.
 %mem=2GB
 ----------------
 # 6-31g(d) wb97x
 ----------------
 1/38=1,172=1/1;
 2/12=2,17=6,18=5,40=1/2;
 3/5=1,6=6,7=1,11=2,25=1,30=1,74=-57/1,2,3;
 4//1;
 5/5=2,38=5/2;
 6/7=2,8=2,9=2,10=2,28=1/1;
 99/5=1,9=1/99;
 ---------------------
 tmpdir/M2_ref_102.gjf
 ---------------------
 Symbolic Z-matrix:
 Charge =  0 Multiplicity = 1
 C                     9.79769   32.27465   34.79924 
 C                     11.19649   32.87936   34.87472 
 C                     12.31648   31.84322   34.82981 
 H                     9.68564   31.58194   35.7431 
 H                     8.99931   33.03979   34.72557 
 H                     9.74144   31.63216   33.9002 
 H                     11.27855   33.46883   35.79478 
 H                     11.30452   33.57944   34.03695 
 H                     13.29917   32.32251   34.78048 
 H                     12.2221   31.19842   33.94445 
 H                     12.30695   31.21548   35.72843 
 
                          Input orientation:                          
 ---------------------------------------------------------------------
 Center     Atomic      Atomic             Coordinates (Angstroms)
 Number     Number       Type             X           Y           Z
 ---------------------------------------------------------------------
      1          6           0        9.797688   32.274648   34.799237
      2          6           0       11.196489   32.879363   34.874723
      3          6           0       12.316479   31.843216   34.829807
      4          1           0        9.685642   31.581937   35.743097
      5          1           0        8.999313   33.039789   34.725574
      6          1           0        9.741440   31.632164   33.900198
      7          1           0       11.278550   33.468826   35.794783
      8          1           0       11.304517   33.579445   34.036954
      9          1           0       13.299165   32.322507   34.780478
     10          1           0       12.222101   31.198423   33.944445
     11          1           0       12.306948   31.215478   35.728435
 ---------------------------------------------------------------------
                    Distance matrix (angstroms):
                    1          2          3          4          5
     1  C    0.000000
     2  C    1.525786   0.000000
     3  C    2.555656   1.526432   0.000000
     4  H    1.176127   2.172567   2.797082   0.000000
     5  H    1.108273   2.208068   3.527923   1.905711   0.000000
     6  H    1.106445   2.149970   2.745823   1.844428   1.792598
     7  H    2.147120   1.095770   2.156637   2.469894   2.553860
     8  H    2.134035   1.097106   2.160364   3.085728   2.465643
     9  H    3.501854   2.177204   1.094452   3.812168   4.359614
    10  H    2.786881   2.177810   1.099332   3.133027   3.793041
    11  H    2.877783   2.174961   1.096211   2.646838   3.908234
                    6          7          8          9         10
     6  H    0.000000
     7  H    3.053766   0.000000
     8  H    2.500763   1.761498   0.000000
     9  H    3.729460   2.534906   2.472113   0.000000
    10  H    2.518684   3.077136   2.553387   1.767083   0.000000
    11  H    3.177721   2.477818   3.074787   1.763131   1.786088
                   11
    11  H    0.000000
 Stoichiometry    C3H8
 Framework group  C1[X(C3H8)]
 Deg. of freedom    27
 Full point group                 C1      NOp   1
 Largest Abelian subgroup         C1      NOp   1
 Largest concise Abelian subgroup C1      NOp   1
                         Standard orientation:                         
 ---------------------------------------------------------------------
 Center     Atomic      Atomic             Coordinates (Angstroms)
 Number     Number       Type             X           Y           Z
 ---------------------------------------------------------------------
      1          6           0       -1.281423   -0.257853   -0.003979
      2          6           0       -0.006092    0.579601    0.011059
      3          6           0        1.274222   -0.251321   -0.007930
      4          1           0       -1.260443   -0.909649    0.974794
      5          1           0       -2.200045    0.355091   -0.097265
      6          1           0       -1.238731   -0.946250   -0.869142
      7          1           0       -0.013987    1.221316    0.899232
      8          1           0       -0.030875    1.243465   -0.862046
      9          1           0        2.159462    0.385296   -0.102236
     10          1           0        1.279930   -0.947782   -0.858484
     11          1           0        1.384448   -0.824049    0.920245
 ---------------------------------------------------------------------
 Rotational constants (GHZ):          29.4700718           8.3673335           7.4599450
 Standard basis: 6-31G(d) (6D, 7F)
 There are    61 symmetry adapted cartesian basis functions of A   symmetry.
 There are    61 symmetry adapted basis functions of A   symmetry.
    61 basis functions,   116 primitive gaussians,    61 cartesian basis functions
    13 alpha electrons       13 beta electrons
       nuclear repulsion energy        82.1915793587 Hartrees.
 NAtoms=   11 NActive=   11 NUniq=   11 SFac= 1.00D+00 NAtFMM=   60 NAOKFM=F Big=F
 Integral buffers will be    131072 words long.
 Raffenetti 2 integral format.
 Two-electron integral symmetry is turned on.
 One-electron integrals computed using PRISM.
 NBasis=    61 RedAO= T EigKep=  6.14D-03  NBF=    61
 NBsUse=    61 1.00D-06 EigRej= -1.00D+00 NBFU=    61
 ExpMin= 1.61D-01 ExpMax= 3.05D+03 ExpMxC= 4.57D+02 IAcc=3 IRadAn=         5 AccDes= 0.00D+00
 Harris functional with IExCor= 4538 and IRadAn=       5 diagonalized for initial guess.
 HarFok:  IExCor= 4538 AccDes= 0.00D+00 IRadAn=         5 IDoV= 1 UseB2=F ITyADJ=14
 ICtDFT=  3500011 ScaDFX=  1.000000  1.000000  1.000000  1.000000
 FoFCou: FMM=F IPFlag=           0 FMFlag=      100000 FMFlg1=           0
         NFxFlg=           0 DoJE=T BraDBF=F KetDBF=T FulRan=T
         wScrn=  0.000000 ICntrl=       500 IOpCl=  0 I1Cent=   200000004 NGrid=           0
         NMat0=    1 NMatS0=      1 NMatT0=    0 NMatD0=    1 NMtDS0=    0 NMtDT0=    0
 Petite list used in FoFCou.
 Keep R1 ints in memory in canonical form, NReq=5346468.
 Requested convergence on RMS density matrix=1.00D-08 within 128 cycles.
 Requested convergence on MAX density matrix=1.00D-06.
 Requested convergence on             energy=1.00D-06.
 No special actions if energy rises.
 Integral accuracy reduced to 1.0D-05 until final iterations.
 Initial convergence to 1.0D-05 achieved.  Increase integral accuracy.
 SCF Done:  E(RwB97X) =  -119.100543903     A.U. after   12 cycles
            NFock= 12  Conv=0.32D-08     -V/T= 2.0115

 **********************************************************************

            Population analysis using the SCF density.

 **********************************************************************

 Orbital symmetries:
       Occupied  (A) (A) (A) (A) (A) (A) (A) (A) (A) (A) (A) (A)
                 (A)
       Virtual   (A) (A) (A) (A) (A) (A) (A) (A) (A) (A) (A) (A)
                 (A) (A) (A) (A) (A) (A) (A) (A) (A) (A) (A) (A)
                 (A) (A) (A) (A) (A) (A) (A) (A) (A) (A) (A) (A)
                 (A) (A) (A) (A) (A) (A) (A) (A) (A) (A) (A) (A)
 The electronic state is 1-A.
 Alpha  occ. eigenvalues --  -10.26356 -10.26051 -10.25408  -0.90799  -0.80009
 Alpha  occ. eigenvalues --   -0.69692  -0.56665  -0.54472  -0.49667  -0.47904
 Alpha  occ. eigenvalues --   -0.43889  -0.42918  -0.41988
 Alpha virt. eigenvalues --    0.18367   0.23499   0.24322   0.24591   0.26707
 Alpha virt. eigenvalues --    0.28169   0.29366   0.29522   0.32260   0.36595
 Alpha virt. eigenvalues --    0.61821   0.62214   0.65919   0.66643   0.69713
 Alpha virt. eigenvalues --    0.78870   0.82007   0.84028   0.89547   0.97529
 Alpha virt. eigenvalues --    0.99558   1.00735   1.02181   1.03263   1.06701
 Alpha virt. eigenvalues --    1.08406   1.09577   1.14125   1.50346   1.55059
 Alpha virt. eigenvalues --    1.57818   1.67552   1.84370   2.02164   2.04689
 Alpha virt. eigenvalues --    2.08184   2.16307   2.19412   2.29893   2.35588
 Alpha virt. eigenvalues --    2.43759   2.47328   2.52313   2.69582   2.78582
 Alpha virt. eigenvalues --    4.26053   4.39994   4.58386
          Condensed to atoms (all electrons):
               1          2          3          4          5          6
     1  C    5.085812   0.363764  -0.053490   0.375921   0.382155   0.381983
     2  C    0.363764   4.972405   0.368004  -0.041829  -0.028692  -0.040000
     3  C   -0.053490   0.368004   5.078204  -0.002649   0.003981  -0.004786
     4  H    0.375921  -0.041829  -0.002649   0.580583  -0.020010  -0.026902
     5  H    0.382155  -0.028692   0.003981  -0.020010   0.538199  -0.028905
     6  H    0.381983  -0.040000  -0.004786  -0.026902  -0.028905   0.562683
     7  H   -0.039734   0.391561  -0.038311  -0.005293  -0.002064   0.005026
     8  H   -0.042246   0.390800  -0.037822   0.005020  -0.002775  -0.003617
     9  H    0.004192  -0.029162   0.384302  -0.000059  -0.000121  -0.000009
    10  H   -0.004370  -0.036104   0.384512  -0.000273  -0.000002   0.005188
    11  H   -0.002646  -0.035308   0.384807   0.004073  -0.000045  -0.000237
               7          8          9         10         11
     1  C   -0.039734  -0.042246   0.004192  -0.004370  -0.002646
     2  C    0.391561   0.390800  -0.029162  -0.036104  -0.035308
     3  C   -0.038311  -0.037822   0.384302   0.384512   0.384807
     4  H   -0.005293   0.005020  -0.000059  -0.000273   0.004073
     5  H   -0.002064  -0.002775  -0.000121  -0.000002  -0.000045
     6  H    0.005026  -0.003617  -0.000009   0.005188  -0.000237
     7  H    0.575884  -0.033137  -0.001846   0.004566  -0.004699
     8  H   -0.033137   0.580569  -0.003544  -0.002983   0.004608
     9  H   -0.001846  -0.003544   0.545009  -0.028083  -0.028426
    10  H    0.004566  -0.002983  -0.028083   0.554288  -0.027506
    11  H   -0.004699   0.004608  -0.028426  -0.027506   0.552800
 Mulliken charges:
               1
     1  C   -0.451342
     2  C   -0.275441
     3  C   -0.466754
     4  H    0.131417
     5  H    0.158279
     6  H    0.149577
     7  H    0.148046
     8  H    0.145126
     9  H    0.157746
    10  H    0.150766
    11  H    0.152579
 Sum of Mulliken charges =  -0.00000
 Mulliken charges with hydrogens summed into heavy atoms:
               1
     1  C   -0.012069
     2  C    0.017731
     3  C   -0.005662
 Electronic spatial extent (au):  <R**2>=            227.0249
 Charge=             -0.0000 electrons
 Dipole moment (field-independent basis, Debye):
    X=              0.0655    Y=              0.1119    Z=             -0.0579  Tot=              0.1420
 Quadrupole moment (field-independent basis, Debye-Ang):
   XX=            -21.9504   YY=            -21.8142   ZZ=            -21.2131
   XY=             -0.2539   XZ=              0.2147   YZ=             -0.0047
 Traceless Quadrupole moment (field-independent basis, Debye-Ang):
   XX=             -0.2912   YY=             -0.1550   ZZ=              0.4462
   XY=             -0.2539   XZ=              0.2147   YZ=             -0.0047
 Octapole moment (field-independent basis, Debye-Ang**2):
  XXX=              0.4961  YYY=              0.4458  ZZZ=              0.1158  XYY=              0.2431
  XXY=              1.9577  XXZ=             -0.5737  XZZ=              0.2751  YZZ=             -0.5034
  YYZ=             -0.1708  XYZ=             -0.0134
 Hexadecapole moment (field-independent basis, Debye-Ang**3):
 XXXX=           -199.3989 YYYY=            -69.3513 ZZZZ=            -43.3578 XXXY=             -1.4766
 XXXZ=              1.2371 YYYX=             -0.5609 YYYZ=              0.3106 ZZZX=              0.4389
 ZZZY=             -0.0078 XXYY=            -44.9522 XXZZ=            -41.6468 YYZZ=            -16.6838
 XXYZ=             -0.2696 YYXZ=              0.0960 ZZXY=             -0.2494
 N-N= 8.219157935866D+01 E-N=-4.387801901865D+02  KE= 1.177518781939D+02
 1\1\GINC-NODE67\SP\RwB97X\6-31G(d)\C3H8\YANZ\22-Sep-2023\0\\# 6-31g(d)
  wb97x\\tmpdir/M2_ref_102.gjf\\0,1\C,0,9.797688,32.274648,34.799237\C,
 0,11.196489,32.879363,34.874723\C,0,12.316479,31.843216,34.829807\H,0,
 9.68564206,31.58193706,35.7430972\H,0,8.99931268,33.03978899,34.725574
 36\H,0,9.74144,31.632164,33.900198\H,0,11.27855,33.468826,35.794783\H,
 0,11.304517,33.579445,34.036954\H,0,13.299165,32.322507,34.780478\H,0,
 12.222101,31.198423,33.944445\H,0,12.306948,31.215478,35.728435\\Versi
 on=ES64L-G16RevA.03\State=1-A\HF=-119.1005439\RMSD=3.180e-09\Dipole=0.
 0333747,0.0400108,-0.0201161\Quadrupole=-0.283609,-0.0504491,0.3340581
 ,-0.1668448,0.1351557,-0.0531876\PG=C01 [X(C3H8)]\\@


 I WISH TO HAVE NO CONNECTION WITH ANY SHIP THAT DOES NOT SAIL FAST,
 FOR I INTEND TO GO IN HARM'S WAY.
     -- JOHN PAUL JONES, USN 1747-1792
 Job cpu time:       0 days  0 hours  0 minutes 19.6 seconds.
 Elapsed time:       0 days  0 hours  0 minutes  9.8 seconds.
 File lengths (MBytes):  RWF=      6 Int=      0 D2E=      0 Chk=      1 Scr=      1
 Normal termination of Gaussian 16 at Fri Sep 22 16:29:56 2023.
