 Entering Gaussian System, Link 0=g16
 Initial command:
 /share/apps/gaussian/g16/l1.exe "/tmp/55568.mgr/Gau-353021.inp" -scrdir="/tmp/55568.mgr/"
 Entering Link 1 = /share/apps/gaussian/g16/l1.exe PID=    353022.
  
 Copyright (c) 1988,1990,1992,1993,1995,1998,2003,2009,2016,
            Gaussian, Inc.  All Rights Reserved.
  
 This is part of the Gaussian(R) 16 program.  It is based on
 the Gaussian(R) 09 system (copyright 2009, Gaussian, Inc.),
 the Gaussian(R) 03 system (copyright 2003, Gaussian, Inc.),
 the Gaussian(R) 98 system (copyright 1998, Gaussian, Inc.),
 the Gaussian(R) 94 system (copyright 1995, Gaussian, Inc.),
 the Gaussian 92(TM) system (copyright 1992, Gaussian, Inc.),
 the Gaussian 90(TM) system (copyright 1990, Gaussian, Inc.),
 the Gaussian 88(TM) system (copyright 1988, Gaussian, Inc.),
 the Gaussian 86(TM) system (copyright 1986, Carnegie Mellon
 University), and the Gaussian 82(TM) system (copyright 1983,
 Carnegie Mellon University). Gaussian is a federally registered
 trademark of Gaussian, Inc.
  
 This software contains proprietary and confidential information,
 including trade secrets, belonging to Gaussian, Inc.
  
 This software is provided under written license and may be
 used, copied, transmitted, or stored only in accord with that
 written license.
  
 The following legend is applicable only to US Government
 contracts under FAR:
  
                    RESTRICTED RIGHTS LEGEND
  
 Use, reproduction and disclosure by the US Government is
 subject to restrictions as set forth in subparagraphs (a)
 and (c) of the Commercial Computer Software - Restricted
 Rights clause in FAR 52.227-19.
  
 Gaussian, Inc.
 340 Quinnipiac St., Bldg. 40, Wallingford CT 06492
  
  
 ---------------------------------------------------------------
 Warning -- This program may not be used in any manner that
 competes with the business of Gaussian, Inc. or will provide
 assistance to any competitor of Gaussian, Inc.  The licensee
 of this program is prohibited from giving any competitor of
 Gaussian, Inc. access to this program.  By using this program,
 the user acknowledges that Gaussian, Inc. is engaged in the
 business of creating and licensing software in the field of
 computational chemistry and represents and warrants to the
 licensee that it is not a competitor of Gaussian, Inc. and that
 it will not use this program in any manner prohibited above.
 ---------------------------------------------------------------
  

 Cite this work as:
 Gaussian 16, Revision A.03,
 M. J. Frisch, G. W. Trucks, H. B. Schlegel, G. E. Scuseria, 
 M. A. Robb, J. R. Cheeseman, G. Scalmani, V. Barone, 
 G. A. Petersson, H. Nakatsuji, X. Li, M. Caricato, A. V. Marenich, 
 J. Bloino, B. G. Janesko, R. Gomperts, B. Mennucci, H. P. Hratchian, 
 J. V. Ortiz, A. F. Izmaylov, J. L. Sonnenberg, D. Williams-Young, 
 F. Ding, F. Lipparini, F. Egidi, J. Goings, B. Peng, A. Petrone, 
 T. Henderson, D. Ranasinghe, V. G. Zakrzewski, J. Gao, N. Rega, 
 G. Zheng, W. Liang, M. Hada, M. Ehara, K. Toyota, R. Fukuda, 
 J. Hasegawa, M. Ishida, T. Nakajima, Y. Honda, O. Kitao, H. Nakai, 
 T. Vreven, K. Throssell, J. A. Montgomery, Jr., J. E. Peralta, 
 F. Ogliaro, M. J. Bearpark, J. J. Heyd, E. N. Brothers, K. N. Kudin, 
 V. N. Staroverov, T. A. Keith, R. Kobayashi, J. Normand, 
 K. Raghavachari, A. P. Rendell, J. C. Burant, S. S. Iyengar, 
 J. Tomasi, M. Cossi, J. M. Millam, M. Klene, C. Adamo, R. Cammi, 
 J. W. Ochterski, R. L. Martin, K. Morokuma, O. Farkas, 
 J. B. Foresman, and D. J. Fox, Gaussian, Inc., Wallingford CT, 2016.
 
 ******************************************
 Gaussian 16:  ES64L-G16RevA.03 25-Dec-2016
                22-Sep-2023 
 ******************************************
 %nprocshared=2
 Will use up to    2 processors via shared memory.
 %mem=2GB
 ----------------
 # 6-31g(d) wb97x
 ----------------
 1/38=1,172=1/1;
 2/12=2,17=6,18=5,40=1/2;
 3/5=1,6=6,7=1,11=2,25=1,30=1,74=-57/1,2,3;
 4//1;
 5/5=2,38=5/2;
 6/7=2,8=2,9=2,10=2,28=1/1;
 99/5=1,9=1/99;
 --------------------
 tmpdir/M2_ref_23.gjf
 --------------------
 Symbolic Z-matrix:
 Charge =  1 Multiplicity = 1
 C                     6.84799   28.76089   37.58169 
 C                     8.00719   28.21102   36.75394 
 N                     8.47663   26.95206   37.43349 
 H                     6.61838   29.80344   37.38846 
 H                     5.93539   28.17384   37.43345 
 H                     7.07278   28.66401   38.65506 
 H                     8.82637   28.95083   36.65997 
 H                     7.68017   27.90277   35.75447 
 H                     9.38001   26.6152   36.95615 
 H                     8.66668   27.14314   38.42023 
 H                     7.74344   26.24082   37.40246 
 
                          Input orientation:                          
 ---------------------------------------------------------------------
 Center     Atomic      Atomic             Coordinates (Angstroms)
 Number     Number       Type             X           Y           Z
 ---------------------------------------------------------------------
      1          6           0        6.847987   28.760885   37.581689
      2          6           0        8.007186   28.211016   36.753941
      3          7           0        8.476632   26.952058   37.433493
      4          1           0        6.618383   29.803439   37.388463
      5          1           0        5.935393   28.173842   37.433446
      6          1           0        7.072778   28.664014   38.655061
      7          1           0        8.826367   28.950825   36.659973
      8          1           0        7.680165   27.902771   35.754467
      9          1           0        9.380009   26.615197   36.956153
     10          1           0        8.666679   27.143140   38.420234
     11          1           0        7.743438   26.240824   37.402460
 ---------------------------------------------------------------------
                    Distance matrix (angstroms):
                    1          2          3          4          5
     1  C    0.000000
     2  C    1.526848   0.000000
     3  N    2.438504   1.505704   0.000000
     4  H    1.084884   2.206174   3.403747   0.000000
     5  H    1.095182   2.180696   2.819690   1.767509   0.000000
     6  H    1.100928   2.166237   2.528602   1.763246   1.739614
     7  H    2.190805   1.107793   2.171571   2.476457   3.091876
     8  H    2.183488   1.095859   2.087425   2.722106   2.436530
     9  H    3.377337   2.114751   1.075834   4.240089   3.810848
    10  H    2.574470   2.086102   1.022882   3.512444   3.081561
    11  H    2.680422   2.090884   1.021954   3.736064   2.646988
                    6          7          8          9         10
     6  H    0.000000
     7  H    2.671650   0.000000
     8  H    3.059715   1.797815   0.000000
     9  H    3.522393   2.418554   2.447727   0.000000
    10  H    2.215564   2.528190   2.942204   1.712045   0.000000
    11  H    2.809029   3.011334   2.341357   1.737156   1.643901
                   11
    11  H    0.000000
 Stoichiometry    C2H8N(1+)
 Framework group  C1[X(C2H8N)]
 Deg. of freedom    27
 Full point group                 C1      NOp   1
 Largest Abelian subgroup         C1      NOp   1
 Largest concise Abelian subgroup C1      NOp   1
                         Standard orientation:                         
 ---------------------------------------------------------------------
 Center     Atomic      Atomic             Coordinates (Angstroms)
 Number     Number       Type             X           Y           Z
 ---------------------------------------------------------------------
      1          6           0        1.269997   -0.253014   -0.003528
      2          6           0        0.031574    0.639995    0.006861
      3          7           0       -1.168452   -0.269387   -0.003520
      4          1           0        2.181563    0.253729   -0.302244
      5          1           0        1.438164   -0.716918    0.974192
      6          1           0        1.118905   -1.098012   -0.692871
      7          1           0        0.022861    1.332897   -0.857440
      8          1           0       -0.043277    1.217122    0.935423
      9          1           0       -2.054707    0.325649   -0.137326
     10          1           0       -1.089199   -0.936092   -0.775214
     11          1           0       -1.204563   -0.814552    0.860124
 ---------------------------------------------------------------------
 Rotational constants (GHZ):          28.1423115           8.7029455           7.5457302
 Standard basis: 6-31G(d) (6D, 7F)
 There are    61 symmetry adapted cartesian basis functions of A   symmetry.
 There are    61 symmetry adapted basis functions of A   symmetry.
    61 basis functions,   116 primitive gaussians,    61 cartesian basis functions
    13 alpha electrons       13 beta electrons
       nuclear repulsion energy        90.0579410306 Hartrees.
 NAtoms=   11 NActive=   11 NUniq=   11 SFac= 1.00D+00 NAtFMM=   60 NAOKFM=F Big=F
 Integral buffers will be    131072 words long.
 Raffenetti 2 integral format.
 Two-electron integral symmetry is turned on.
 One-electron integrals computed using PRISM.
 NBasis=    61 RedAO= T EigKep=  6.14D-03  NBF=    61
 NBsUse=    61 1.00D-06 EigRej= -1.00D+00 NBFU=    61
 ExpMin= 1.61D-01 ExpMax= 4.17D+03 ExpMxC= 6.27D+02 IAcc=3 IRadAn=         5 AccDes= 0.00D+00
 Harris functional with IExCor= 4538 and IRadAn=       5 diagonalized for initial guess.
 HarFok:  IExCor= 4538 AccDes= 0.00D+00 IRadAn=         5 IDoV= 1 UseB2=F ITyADJ=14
 ICtDFT=  3500011 ScaDFX=  1.000000  1.000000  1.000000  1.000000
 FoFCou: FMM=F IPFlag=           0 FMFlag=      100000 FMFlg1=           0
         NFxFlg=           0 DoJE=T BraDBF=F KetDBF=T FulRan=T
         wScrn=  0.000000 ICntrl=       500 IOpCl=  0 I1Cent=   200000004 NGrid=           0
         NMat0=    1 NMatS0=      1 NMatT0=    0 NMatD0=    1 NMtDS0=    0 NMtDT0=    0
 Petite list used in FoFCou.
 Keep R1 ints in memory in canonical form, NReq=5346468.
 Requested convergence on RMS density matrix=1.00D-08 within 128 cycles.
 Requested convergence on MAX density matrix=1.00D-06.
 Requested convergence on             energy=1.00D-06.
 No special actions if energy rises.
 Integral accuracy reduced to 1.0D-05 until final iterations.
 Initial convergence to 1.0D-05 achieved.  Increase integral accuracy.
 SCF Done:  E(RwB97X) =  -135.490949251     A.U. after   12 cycles
            NFock= 12  Conv=0.70D-08     -V/T= 2.0108

 **********************************************************************

            Population analysis using the SCF density.

 **********************************************************************

 Orbital symmetries:
       Occupied  (A) (A) (A) (A) (A) (A) (A) (A) (A) (A) (A) (A)
                 (A)
       Virtual   (A) (A) (A) (A) (A) (A) (A) (A) (A) (A) (A) (A)
                 (A) (A) (A) (A) (A) (A) (A) (A) (A) (A) (A) (A)
                 (A) (A) (A) (A) (A) (A) (A) (A) (A) (A) (A) (A)
                 (A) (A) (A) (A) (A) (A) (A) (A) (A) (A) (A) (A)
 The electronic state is 1-A.
 Alpha  occ. eigenvalues --  -14.75590 -10.53028 -10.44967  -1.34421  -1.09024
 Alpha  occ. eigenvalues --   -0.96758  -0.91533  -0.89387  -0.80628  -0.74823
 Alpha  occ. eigenvalues --   -0.68670  -0.67321  -0.64873
 Alpha virt. eigenvalues --   -0.07739  -0.01544  -0.00689   0.01711   0.04886
 Alpha virt. eigenvalues --    0.06381   0.08261   0.12157   0.12358   0.14015
 Alpha virt. eigenvalues --    0.41369   0.42589   0.43782   0.46176   0.50443
 Alpha virt. eigenvalues --    0.56272   0.60576   0.67472   0.69245   0.73178
 Alpha virt. eigenvalues --    0.74629   0.78658   0.79973   0.82447   0.85363
 Alpha virt. eigenvalues --    0.87289   0.91399   0.94336   1.27862   1.28372
 Alpha virt. eigenvalues --    1.37175   1.49851   1.61530   1.74701   1.77865
 Alpha virt. eigenvalues --    1.87540   1.93290   1.98406   2.12739   2.15674
 Alpha virt. eigenvalues --    2.17963   2.27387   2.33434   2.41696   2.56338
 Alpha virt. eigenvalues --    3.63650   4.10063   4.31997
          Condensed to atoms (all electrons):
               1          2          3          4          5          6
     1  C    5.163871   0.328684  -0.064057   0.387594   0.384933   0.382487
     2  C    0.328684   5.112687   0.178827  -0.021470  -0.032475  -0.041983
     3  N   -0.064057   0.178827   6.788147   0.002482  -0.000357  -0.006338
     4  H    0.387594  -0.021470   0.002482   0.407498  -0.014786  -0.016254
     5  H    0.384933  -0.032475  -0.000357  -0.014786   0.476851  -0.029549
     6  H    0.382487  -0.041983  -0.006338  -0.016254  -0.029549   0.516201
     7  H   -0.029576   0.390166  -0.027607  -0.002426   0.002928  -0.001541
     8  H   -0.029204   0.391018  -0.035057  -0.000024  -0.005163   0.003392
     9  H    0.003670  -0.018902   0.299583  -0.000068  -0.000097   0.000112
    10  H    0.000033  -0.019113   0.301404  -0.000040  -0.000489   0.007871
    11  H    0.000594  -0.018142   0.306683  -0.000072   0.002562  -0.000367
               7          8          9         10         11
     1  C   -0.029576  -0.029204   0.003670   0.000033   0.000594
     2  C    0.390166   0.391018  -0.018902  -0.019113  -0.018142
     3  N   -0.027607  -0.035057   0.299583   0.301404   0.306683
     4  H   -0.002426  -0.000024  -0.000068  -0.000040  -0.000072
     5  H    0.002928  -0.005163  -0.000097  -0.000489   0.002562
     6  H   -0.001541   0.003392   0.000112   0.007871  -0.000367
     7  H    0.428325  -0.020404  -0.002036  -0.001842   0.002482
     8  H   -0.020404   0.439427  -0.001003   0.003310  -0.003563
     9  H   -0.002036  -0.001003   0.282145  -0.009890  -0.008881
    10  H   -0.001842   0.003310  -0.009890   0.291636  -0.013406
    11  H    0.002482  -0.003563  -0.008881  -0.013406   0.283947
 Mulliken charges:
               1
     1  C   -0.529031
     2  C   -0.249297
     3  N   -0.743710
     4  H    0.257567
     5  H    0.215643
     6  H    0.185969
     7  H    0.261533
     8  H    0.257270
     9  H    0.455367
    10  H    0.440526
    11  H    0.448163
 Sum of Mulliken charges =   1.00000
 Mulliken charges with hydrogens summed into heavy atoms:
               1
     1  C    0.130148
     2  C    0.269506
     3  N    0.600346
 Electronic spatial extent (au):  <R**2>=            204.7322
 Charge=              1.0000 electrons
 Dipole moment (field-independent basis, Debye):
    X=             -3.8807    Y=             -0.6792    Z=             -0.0366  Tot=              3.9398
 Quadrupole moment (field-independent basis, Debye-Ang):
   XX=             -9.2127   YY=            -15.6711   ZZ=            -16.5263
   XY=              1.2534   XZ=             -0.0095   YZ=             -0.2583
 Traceless Quadrupole moment (field-independent basis, Debye-Ang):
   XX=              4.5907   YY=             -1.8677   ZZ=             -2.7230
   XY=              1.2534   XZ=             -0.0095   YZ=             -0.2583
 Octapole moment (field-independent basis, Debye-Ang**2):
  XXX=            -15.8849  YYY=             -1.5616  ZZZ=              1.1486  XYY=             -4.1337
  XXY=              0.0134  XXZ=             -0.9606  XZZ=             -4.1065  YZZ=             -1.6517
  YYZ=             -0.6675  XYZ=             -0.1286
 Hexadecapole moment (field-independent basis, Debye-Ang**3):
 XXXX=           -117.5280 YYYY=            -54.6805 ZZZZ=            -30.5445 XXXY=              0.4571
 XXXZ=             -0.3840 YYYX=              4.2349 YYYZ=              0.0484 ZZZX=              0.2778
 ZZZY=             -0.6816 XXYY=            -32.2946 XXZZ=            -29.1579 YYZZ=            -10.5342
 XXYZ=             -1.8494 YYXZ=             -0.1210 ZZXY=              2.3568
 N-N= 9.005794103065D+01 E-N=-4.869826505104D+02  KE= 1.340461831861D+02
 1\1\GINC-NODE67\SP\RwB97X\6-31G(d)\C2H8N1(1+)\YANZ\22-Sep-2023\0\\# 6-
 31g(d) wb97x\\tmpdir/M2_ref_23.gjf\\1,1\C,0,6.847987,28.760885,37.5816
 89\C,0,8.007186,28.211016,36.753941\N,0,8.476632,26.952058,37.433493\H
 ,0,6.61838339,29.80343937,37.38846283\H,0,5.935393,28.173842,37.433446
 \H,0,7.072778,28.664014,38.655061\H,0,8.82636725,28.95082532,36.659972
 63\H,0,7.680165,27.902771,35.754467\H,0,9.380009,26.615197,36.956153\H
 ,0,8.666679,27.14314,38.420234\H,0,7.743438,26.240824,37.40246\\Versio
 n=ES64L-G16RevA.03\State=1-A\HF=-135.4909493\RMSD=6.957e-09\Dipole=0.9
 323914,-1.2316148,0.1281314\Quadrupole=0.1260919,1.7168723,-1.8429643,
 -2.505322,0.037044,-0.5339655\PG=C01 [X(C2H8N1)]\\@


                                                                                    A
                                                                                  AA
                                                                                 AAA
                                                                                AAAA
                                                                               AAAAA
                                                                              AAAAAA   KKKKKKKK
                                                                             AAAAAAA   KKKKKKKK
                                                                            AAAAAAAA   KKKKKKKK
                                       ZZZZZZZZZZZZZZZZZZZZ                AAAA  AAA   KKKKKKKK
                                       ZZZZZZZZZZZZZZZZZZZ                AAAA   AAA   KKKKKKKK          K
                                       ZZZZZZZZZZZZZZZZZZ                AAAA    AAA   KKKKKKKK         KKK
                                       ZZZZZZZZZZZZZZZZZ                AAAA     AAA   KKKKKKKK        KKKKK
                                       ZZZZZZZZZZZZZZZZ                AAAA      AAA   KKKKKKKK       KKKKKKK
                                                ZZZZZZ                AAAA       AAA   KKKKKKKK      KKKKKKK
                                               ZZZZZZ                AAAA        AAA   KKKKKKKK     KKKKKKK
                                              ZZZZZZ                AAAA         AAA   KKKKKKKK    KKKKKKK
                                             ZZZZZZ                AAAA          AAA   KKKKKKKK   KKKKKKK
                                            ZZZZZZ                AAAAAAAAAAAAAAAAAA   KKKKKKKK  KKKKKKK
                                           ZZZZZZ                AAAAAAAAAAAAAAAAAAA   KKKKKKKK KKKKKKK
                                          ZZZZZZ                AAAAAAAAAAAAAAAAAAAA   KKKKKKKKKKKKKKK
                                         ZZZZZZ                AAAAAAAAAAAAAAAAAAAAA   KKKKKKKKKKKKKK
                                        ZZZZZZ                AAAAAA        AAAAAAAA   KKKKKKKKKKKKK
                                       ZZZZZZ                AAAAAA         AAAAAAAA   KKKKKKKKKKKK
                                      ZZZZZZ                AAAAAA          AAAAAAAA   KKKKKKKKKKK
                                     ZZZZZZ                AAAAAA           AAAAAAAA   KKKKKKKKKKKK
                                    ZZZZZZ                AAAAAA            AAAAAAAA   KKKKKKKKKKKKK
                                   ZZZZZZ                AAAAAA             AAAAAAAA   KKKKKKKKKKKKKK
                                  ZZZZZZ                AAAAAA              AAAAAAAA   KKKKKKKKKKKKKKK
                                 ZZZZZZ                AAAAAA               AAAAAAAA   KKKKK KKKKKKKKKK
                                ZZZZZZ                AAAAAA                AAAAAAAA   KKKKK  KKKKKKKKKK
                               ZZZZZZ                AAAAAA                            KKKKK   KKKKKKKKKK
                              ZZZZZZ                AAAAAA                             KKKKK    KKKKKKKKKK
                             ZZZZZZ                                                    KKKKK     KKKKKKKKKK
                            ZZZZZZ                                                     KKKKK      KKKKKKKKKK
                           ZZZZZZ                                                      KKKKK       KKKKKKKKKK
                          ZZZZZZ                                                       KKKKK        KKKKKKKKKK
                         ZZZZZZZZZZZZZZZZZZZZZZZZZZZZZZZZZZZZZZZZ                      KKKKK         KKKKKKKKKK
                        ZZZZZZZZZZZZZZZZZZZZZZZZZZZZZZZZZZZZZZZZZ                      KKKKK          KKKKKKKKKK
                       ZZZZZZZZZZZZZZZZZZZZZZZZZZZZZZZZZZZZZZZZZZ                      KKKKK           KKKKKKKKKK
                       ZZZZZZZZZZZZZZZZZZZZZZZZZZZZZZZZZZZZZZZZZZ                      KKKKK            KKKKKKKKKK
                       ZZZZZZZZZZZZZZZZZZZZZZZZZZZZZZZZZZZZZZZZZZ                      KKKKK             KKKKKKKKKK
                       ZZZZZZZZZZZZZZZZZZZZZZZZZZZZZZZZZZZZZZZZZZ                      KKKKK              KKKKKKKKKK
                       ZZZZZZZZZZZZZZZZZZZZZZZZZZZZZZZZZZZZZZZZZZ                      KKKKK               KKKKKKKKKK
                       ZZZZZZZZZZZZZZZZZZZZZZZZZZZZZZZZZZZZZZZZZZ                      KKKKK                KKKKKKKKKK
                       ZZZZZZZZZZZZZZZZZZZZZZZZZZZZZZZZZZZZZZZZZZ                      KKKKK
                                                                                       KKKKK
                                                                                          (J.P.)
 Job cpu time:       0 days  0 hours  0 minutes 19.4 seconds.
 Elapsed time:       0 days  0 hours  0 minutes  9.8 seconds.
 File lengths (MBytes):  RWF=      6 Int=      0 D2E=      0 Chk=      1 Scr=      1
 Normal termination of Gaussian 16 at Fri Sep 22 16:29:23 2023.
