 Entering Gaussian System, Link 0=g16
 Initial command:
 /share/apps/gaussian/g16/l1.exe "/tmp/55568.mgr/Gau-353249.inp" -scrdir="/tmp/55568.mgr/"
 Entering Link 1 = /share/apps/gaussian/g16/l1.exe PID=    353250.
  
 Copyright (c) 1988,1990,1992,1993,1995,1998,2003,2009,2016,
            Gaussian, Inc.  All Rights Reserved.
  
 This is part of the Gaussian(R) 16 program.  It is based on
 the Gaussian(R) 09 system (copyright 2009, Gaussian, Inc.),
 the Gaussian(R) 03 system (copyright 2003, Gaussian, Inc.),
 the Gaussian(R) 98 system (copyright 1998, Gaussian, Inc.),
 the Gaussian(R) 94 system (copyright 1995, Gaussian, Inc.),
 the Gaussian 92(TM) system (copyright 1992, Gaussian, Inc.),
 the Gaussian 90(TM) system (copyright 1990, Gaussian, Inc.),
 the Gaussian 88(TM) system (copyright 1988, Gaussian, Inc.),
 the Gaussian 86(TM) system (copyright 1986, Carnegie Mellon
 University), and the Gaussian 82(TM) system (copyright 1983,
 Carnegie Mellon University). Gaussian is a federally registered
 trademark of Gaussian, Inc.
  
 This software contains proprietary and confidential information,
 including trade secrets, belonging to Gaussian, Inc.
  
 This software is provided under written license and may be
 used, copied, transmitted, or stored only in accord with that
 written license.
  
 The following legend is applicable only to US Government
 contracts under FAR:
  
                    RESTRICTED RIGHTS LEGEND
  
 Use, reproduction and disclosure by the US Government is
 subject to restrictions as set forth in subparagraphs (a)
 and (c) of the Commercial Computer Software - Restricted
 Rights clause in FAR 52.227-19.
  
 Gaussian, Inc.
 340 Quinnipiac St., Bldg. 40, Wallingford CT 06492
  
  
 ---------------------------------------------------------------
 Warning -- This program may not be used in any manner that
 competes with the business of Gaussian, Inc. or will provide
 assistance to any competitor of Gaussian, Inc.  The licensee
 of this program is prohibited from giving any competitor of
 Gaussian, Inc. access to this program.  By using this program,
 the user acknowledges that Gaussian, Inc. is engaged in the
 business of creating and licensing software in the field of
 computational chemistry and represents and warrants to the
 licensee that it is not a competitor of Gaussian, Inc. and that
 it will not use this program in any manner prohibited above.
 ---------------------------------------------------------------
  

 Cite this work as:
 Gaussian 16, Revision A.03,
 M. J. Frisch, G. W. Trucks, H. B. Schlegel, G. E. Scuseria, 
 M. A. Robb, J. R. Cheeseman, G. Scalmani, V. Barone, 
 G. A. Petersson, H. Nakatsuji, X. Li, M. Caricato, A. V. Marenich, 
 J. Bloino, B. G. Janesko, R. Gomperts, B. Mennucci, H. P. Hratchian, 
 J. V. Ortiz, A. F. Izmaylov, J. L. Sonnenberg, D. Williams-Young, 
 F. Ding, F. Lipparini, F. Egidi, J. Goings, B. Peng, A. Petrone, 
 T. Henderson, D. Ranasinghe, V. G. Zakrzewski, J. Gao, N. Rega, 
 G. Zheng, W. Liang, M. Hada, M. Ehara, K. Toyota, R. Fukuda, 
 J. Hasegawa, M. Ishida, T. Nakajima, Y. Honda, O. Kitao, H. Nakai, 
 T. Vreven, K. Throssell, J. A. Montgomery, Jr., J. E. Peralta, 
 F. Ogliaro, M. J. Bearpark, J. J. Heyd, E. N. Brothers, K. N. Kudin, 
 V. N. Staroverov, T. A. Keith, R. Kobayashi, J. Normand, 
 K. Raghavachari, A. P. Rendell, J. C. Burant, S. S. Iyengar, 
 J. Tomasi, M. Cossi, J. M. Millam, M. Klene, C. Adamo, R. Cammi, 
 J. W. Ochterski, R. L. Martin, K. Morokuma, O. Farkas, 
 J. B. Foresman, and D. J. Fox, Gaussian, Inc., Wallingford CT, 2016.
 
 ******************************************
 Gaussian 16:  ES64L-G16RevA.03 25-Dec-2016
                22-Sep-2023 
 ******************************************
 %nprocshared=2
 Will use up to    2 processors via shared memory.
 %mem=2GB
 ----------------
 # 6-31g(d) wb97x
 ----------------
 1/38=1,172=1/1;
 2/12=2,17=6,18=5,40=1/2;
 3/5=1,6=6,7=1,11=2,25=1,30=1,74=-57/1,2,3;
 4//1;
 5/5=2,38=5/2;
 6/7=2,8=2,9=2,10=2,28=1/1;
 99/5=1,9=1/99;
 --------------------
 tmpdir/M2_ref_51.gjf
 --------------------
 Symbolic Z-matrix:
 Charge =  0 Multiplicity = 1
 C                     11.0078   27.71651   35.68496 
 N                     10.32099   28.85906   35.83312 
 H                     10.76191   29.7006   35.47648 
 O                     10.66993   26.61097   36.14557 
 H                     11.9243   27.7806   35.09438 
 H                     9.49326   29.1209   36.38698 
 
                          Input orientation:                          
 ---------------------------------------------------------------------
 Center     Atomic      Atomic             Coordinates (Angstroms)
 Number     Number       Type             X           Y           Z
 ---------------------------------------------------------------------
      1          6           0       11.007796   27.716505   35.684957
      2          7           0       10.320992   28.859058   35.833119
      3          1           0       10.761911   29.700605   35.476478
      4          8           0       10.669927   26.610971   36.145570
      5          1           0       11.924296   27.780604   35.094377
      6          1           0        9.493255   29.120897   36.386976
 ---------------------------------------------------------------------
                    Distance matrix (angstroms):
                    1          2          3          4          5
     1  C    0.000000
     2  N    1.341298   0.000000
     3  H    2.010118   1.014792   0.000000
     4  O    1.244398   2.296362   3.162591   0.000000
     5  H    1.092184   2.068668   2.276740   2.011589   0.000000
     6  H    2.181509   1.029789   1.665700   2.782546   3.062215
                    6
     6  H    0.000000
 Stoichiometry    CH3NO
 Framework group  C1[X(CH3NO)]
 Deg. of freedom    12
 Full point group                 C1      NOp   1
 Largest Abelian subgroup         C1      NOp   1
 Largest concise Abelian subgroup C1      NOp   1
                         Standard orientation:                         
 ---------------------------------------------------------------------
 Center     Atomic      Atomic             Coordinates (Angstroms)
 Number     Number       Type             X           Y           Z
 ---------------------------------------------------------------------
      1          6           0        0.150063    0.384165    0.001862
      2          7           0       -1.077490   -0.155829   -0.022614
      3          1           0       -1.856265    0.488494    0.067731
      4          8           0        1.216494   -0.257123    0.002970
      5          1           0        0.194395    1.475449    0.002478
      6          1           0       -1.428029   -1.121151    0.053152
 ---------------------------------------------------------------------
 Rotational constants (GHZ):          73.8187281          11.0847480           9.6425020
 Standard basis: 6-31G(d) (6D, 7F)
 There are    51 symmetry adapted cartesian basis functions of A   symmetry.
 There are    51 symmetry adapted basis functions of A   symmetry.
    51 basis functions,    96 primitive gaussians,    51 cartesian basis functions
    12 alpha electrons       12 beta electrons
       nuclear repulsion energy        70.5542077830 Hartrees.
 NAtoms=    6 NActive=    6 NUniq=    6 SFac= 1.00D+00 NAtFMM=   60 NAOKFM=F Big=F
 Integral buffers will be    131072 words long.
 Raffenetti 2 integral format.
 Two-electron integral symmetry is turned on.
 One-electron integrals computed using PRISM.
 NBasis=    51 RedAO= T EigKep=  5.91D-03  NBF=    51
 NBsUse=    51 1.00D-06 EigRej= -1.00D+00 NBFU=    51
 ExpMin= 1.61D-01 ExpMax= 5.48D+03 ExpMxC= 8.25D+02 IAcc=3 IRadAn=         5 AccDes= 0.00D+00
 Harris functional with IExCor= 4538 and IRadAn=       5 diagonalized for initial guess.
 HarFok:  IExCor= 4538 AccDes= 0.00D+00 IRadAn=         5 IDoV= 1 UseB2=F ITyADJ=14
 ICtDFT=  3500011 ScaDFX=  1.000000  1.000000  1.000000  1.000000
 FoFCou: FMM=F IPFlag=           0 FMFlag=      100000 FMFlg1=           0
         NFxFlg=           0 DoJE=T BraDBF=F KetDBF=T FulRan=T
         wScrn=  0.000000 ICntrl=       500 IOpCl=  0 I1Cent=   200000004 NGrid=           0
         NMat0=    1 NMatS0=      1 NMatT0=    0 NMatD0=    1 NMtDS0=    0 NMtDT0=    0
 Petite list used in FoFCou.
 Keep R1 ints in memory in canonical form, NReq=3503041.
 Requested convergence on RMS density matrix=1.00D-08 within 128 cycles.
 Requested convergence on MAX density matrix=1.00D-06.
 Requested convergence on             energy=1.00D-06.
 No special actions if energy rises.
 Integral accuracy reduced to 1.0D-05 until final iterations.
 Initial convergence to 1.0D-05 achieved.  Increase integral accuracy.
 SCF Done:  E(RwB97X) =  -169.835105755     A.U. after   16 cycles
            NFock= 16  Conv=0.63D-08     -V/T= 2.0095

 **********************************************************************

            Population analysis using the SCF density.

 **********************************************************************

 Orbital symmetries:
       Occupied  (A) (A) (A) (A) (A) (A) (A) (A) (A) (A) (A) (A)
       Virtual   (A) (A) (A) (A) (A) (A) (A) (A) (A) (A) (A) (A)
                 (A) (A) (A) (A) (A) (A) (A) (A) (A) (A) (A) (A)
                 (A) (A) (A) (A) (A) (A) (A) (A) (A) (A) (A) (A)
                 (A) (A) (A)
 The electronic state is 1-A.
 Alpha  occ. eigenvalues --  -19.17492 -14.44864 -10.37512  -1.14102  -1.03841
 Alpha  occ. eigenvalues --   -0.75715  -0.65842  -0.59897  -0.51015  -0.50291
 Alpha  occ. eigenvalues --   -0.36899  -0.34918
 Alpha virt. eigenvalues --    0.12383   0.16983   0.19296   0.27542   0.36781
 Alpha virt. eigenvalues --    0.45716   0.64335   0.64580   0.75019   0.77674
 Alpha virt. eigenvalues --    0.81880   0.84497   0.95215   0.97895   0.98882
 Alpha virt. eigenvalues --    1.00352   1.12759   1.18956   1.32471   1.35228
 Alpha virt. eigenvalues --    1.47901   1.57653   1.61532   1.80034   1.89951
 Alpha virt. eigenvalues --    1.96793   1.97995   2.08348   2.18845   2.38666
 Alpha virt. eigenvalues --    2.42100   2.60028   2.72578   2.75715   3.00831
 Alpha virt. eigenvalues --    3.15096   3.85741   3.94731   4.30425
          Condensed to atoms (all electrons):
               1          2          3          4          5          6
     1  C    4.461046   0.222887  -0.009153   0.596601   0.388923  -0.002908
     2  N    0.222887   7.094894   0.301252  -0.088105  -0.112175   0.308020
     3  H   -0.009153   0.301252   0.383384   0.002848   0.003387  -0.024031
     4  O    0.596601  -0.088105   0.002848   8.008525  -0.053273   0.001956
     5  H    0.388923  -0.112175   0.003387  -0.053273   0.630412   0.003893
     6  H   -0.002908   0.308020  -0.024031   0.001956   0.003893   0.341490
 Mulliken charges:
               1
     1  C    0.342603
     2  N   -0.726774
     3  H    0.342312
     4  O   -0.468553
     5  H    0.138832
     6  H    0.371580
 Sum of Mulliken charges =  -0.00000
 Mulliken charges with hydrogens summed into heavy atoms:
               1
     1  C    0.481436
     2  N   -0.012883
     4  O   -0.468553
 Electronic spatial extent (au):  <R**2>=            147.6684
 Charge=              0.0000 electrons
 Dipole moment (field-independent basis, Debye):
    X=             -4.2198    Y=              0.9427    Z=              0.2841  Tot=              4.3332
 Quadrupole moment (field-independent basis, Debye-Ang):
   XX=            -16.9614   YY=            -14.8100   ZZ=            -18.4687
   XY=              1.6842   XZ=             -0.5141   YZ=             -0.0690
 Traceless Quadrupole moment (field-independent basis, Debye-Ang):
   XX=             -0.2147   YY=              1.9367   ZZ=             -1.7220
   XY=              1.6842   XZ=             -0.5141   YZ=             -0.0690
 Octapole moment (field-independent basis, Debye-Ang**2):
  XXX=            -13.5556  YYY=             -1.8314  ZZZ=              0.2564  XYY=             -3.3363
  XXY=             -0.3483  XXZ=              0.8537  XZZ=              1.3701  YZZ=             -0.2565
  YYZ=              0.2189  XYZ=              0.0836
 Hexadecapole moment (field-independent basis, Debye-Ang**3):
 XXXX=           -107.3603 YYYY=            -31.3016 ZZZZ=            -15.6678 XXXY=              0.4024
 XXXZ=             -1.6527 YYYX=              4.0028 YYYZ=             -0.1865 ZZZX=             -0.3951
 ZZZY=             -0.0599 XXYY=            -20.7004 XXZZ=            -23.9858 YYZZ=             -8.8022
 XXYZ=             -0.0776 YYXZ=             -0.3552 ZZXY=             -0.2327
 N-N= 7.055420778297D+01 E-N=-5.388765138513D+02  KE= 1.682353564385D+02
 1\1\GINC-NODE67\SP\RwB97X\6-31G(d)\C1H3N1O1\YANZ\22-Sep-2023\0\\# 6-31
 g(d) wb97x\\tmpdir/M2_ref_51.gjf\\0,1\C,0,11.007796,27.716505,35.68495
 7\N,0,10.320992,28.859058,35.833119\H,0,10.761911,29.700605,35.476478\
 O,0,10.669927,26.610971,36.14557\H,0,11.92429648,27.78060366,35.094376
 78\H,0,9.49325517,29.12089718,36.3869762\\Version=ES64L-G16RevA.03\Sta
 te=1-A\HF=-169.8351058\RMSD=6.287e-09\Dipole=0.0633096,1.6804193,-0.28
 02105\Quadrupole=0.9040829,-0.2867301,-0.6173529,-0.801934,-1.3318882,
 0.7266843\PG=C01 [X(C1H3N1O1)]\\@


 THE MOST INCOMPREHENSIBLE THING ABOUT THE WORLD
 IS THAT IT IS COMPREHENSIBLE. -- A. EINSTEIN
 Job cpu time:       0 days  0 hours  0 minutes 11.3 seconds.
 Elapsed time:       0 days  0 hours  0 minutes  5.7 seconds.
 File lengths (MBytes):  RWF=      6 Int=      0 D2E=      0 Chk=      1 Scr=      1
 Normal termination of Gaussian 16 at Fri Sep 22 16:29:28 2023.
