 Entering Gaussian System, Link 0=g16
 Initial command:
 /share/apps/gaussian/g16/l1.exe "/tmp/55568.mgr/Gau-353904.inp" -scrdir="/tmp/55568.mgr/"
 Entering Link 1 = /share/apps/gaussian/g16/l1.exe PID=    353905.
  
 Copyright (c) 1988,1990,1992,1993,1995,1998,2003,2009,2016,
            Gaussian, Inc.  All Rights Reserved.
  
 This is part of the Gaussian(R) 16 program.  It is based on
 the Gaussian(R) 09 system (copyright 2009, Gaussian, Inc.),
 the Gaussian(R) 03 system (copyright 2003, Gaussian, Inc.),
 the Gaussian(R) 98 system (copyright 1998, Gaussian, Inc.),
 the Gaussian(R) 94 system (copyright 1995, Gaussian, Inc.),
 the Gaussian 92(TM) system (copyright 1992, Gaussian, Inc.),
 the Gaussian 90(TM) system (copyright 1990, Gaussian, Inc.),
 the Gaussian 88(TM) system (copyright 1988, Gaussian, Inc.),
 the Gaussian 86(TM) system (copyright 1986, Carnegie Mellon
 University), and the Gaussian 82(TM) system (copyright 1983,
 Carnegie Mellon University). Gaussian is a federally registered
 trademark of Gaussian, Inc.
  
 This software contains proprietary and confidential information,
 including trade secrets, belonging to Gaussian, Inc.
  
 This software is provided under written license and may be
 used, copied, transmitted, or stored only in accord with that
 written license.
  
 The following legend is applicable only to US Government
 contracts under FAR:
  
                    RESTRICTED RIGHTS LEGEND
  
 Use, reproduction and disclosure by the US Government is
 subject to restrictions as set forth in subparagraphs (a)
 and (c) of the Commercial Computer Software - Restricted
 Rights clause in FAR 52.227-19.
  
 Gaussian, Inc.
 340 Quinnipiac St., Bldg. 40, Wallingford CT 06492
  
  
 ---------------------------------------------------------------
 Warning -- This program may not be used in any manner that
 competes with the business of Gaussian, Inc. or will provide
 assistance to any competitor of Gaussian, Inc.  The licensee
 of this program is prohibited from giving any competitor of
 Gaussian, Inc. access to this program.  By using this program,
 the user acknowledges that Gaussian, Inc. is engaged in the
 business of creating and licensing software in the field of
 computational chemistry and represents and warrants to the
 licensee that it is not a competitor of Gaussian, Inc. and that
 it will not use this program in any manner prohibited above.
 ---------------------------------------------------------------
  

 Cite this work as:
 Gaussian 16, Revision A.03,
 M. J. Frisch, G. W. Trucks, H. B. Schlegel, G. E. Scuseria, 
 M. A. Robb, J. R. Cheeseman, G. Scalmani, V. Barone, 
 G. A. Petersson, H. Nakatsuji, X. Li, M. Caricato, A. V. Marenich, 
 J. Bloino, B. G. Janesko, R. Gomperts, B. Mennucci, H. P. Hratchian, 
 J. V. Ortiz, A. F. Izmaylov, J. L. Sonnenberg, D. Williams-Young, 
 F. Ding, F. Lipparini, F. Egidi, J. Goings, B. Peng, A. Petrone, 
 T. Henderson, D. Ranasinghe, V. G. Zakrzewski, J. Gao, N. Rega, 
 G. Zheng, W. Liang, M. Hada, M. Ehara, K. Toyota, R. Fukuda, 
 J. Hasegawa, M. Ishida, T. Nakajima, Y. Honda, O. Kitao, H. Nakai, 
 T. Vreven, K. Throssell, J. A. Montgomery, Jr., J. E. Peralta, 
 F. Ogliaro, M. J. Bearpark, J. J. Heyd, E. N. Brothers, K. N. Kudin, 
 V. N. Staroverov, T. A. Keith, R. Kobayashi, J. Normand, 
 K. Raghavachari, A. P. Rendell, J. C. Burant, S. S. Iyengar, 
 J. Tomasi, M. Cossi, J. M. Millam, M. Klene, C. Adamo, R. Cammi, 
 J. W. Ochterski, R. L. Martin, K. Morokuma, O. Farkas, 
 J. B. Foresman, and D. J. Fox, Gaussian, Inc., Wallingford CT, 2016.
 
 ******************************************
 Gaussian 16:  ES64L-G16RevA.03 25-Dec-2016
                22-Sep-2023 
 ******************************************
 %nprocshared=2
 Will use up to    2 processors via shared memory.
 %mem=2GB
 ----------------
 # 6-31g(d) wb97x
 ----------------
 1/38=1,172=1/1;
 2/12=2,17=6,18=5,40=1/2;
 3/5=1,6=6,7=1,11=2,25=1,30=1,74=-57/1,2,3;
 4//1;
 5/5=2,38=5/2;
 6/7=2,8=2,9=2,10=2,28=1/1;
 99/5=1,9=1/99;
 --------------------
 tmpdir/M2_ref_88.gjf
 --------------------
 Symbolic Z-matrix:
 Charge =  0 Multiplicity = 1
 N                     10.32099   28.85906   35.83312 
 C                     11.0078   27.71651   35.68496 
 C                     12.27388   27.80505   34.86911 
 H                     9.49326   29.1209   36.38698 
 H                     10.76191   29.7006   35.47648 
 O                     10.66993   26.61097   36.14557 
 H                     12.17347   27.14941   33.99997 
 H                     13.10037   27.42272   35.47368 
 H                     12.50771   28.81831   34.53409 
 
                          Input orientation:                          
 ---------------------------------------------------------------------
 Center     Atomic      Atomic             Coordinates (Angstroms)
 Number     Number       Type             X           Y           Z
 ---------------------------------------------------------------------
      1          7           0       10.320992   28.859058   35.833119
      2          6           0       11.007796   27.716505   35.684957
      3          6           0       12.273880   27.805053   34.869110
      4          1           0        9.493255   29.120897   36.386976
      5          1           0       10.761911   29.700605   35.476478
      6          8           0       10.669927   26.610971   36.145570
      7          1           0       12.173475   27.149411   33.999970
      8          1           0       13.100371   27.422715   35.473677
      9          1           0       12.507711   28.818308   34.534092
 ---------------------------------------------------------------------
                    Distance matrix (angstroms):
                    1          2          3          4          5
     1  N    0.000000
     2  C    1.341298   0.000000
     3  C    2.419506   1.508780   0.000000
     4  H    1.029789   2.181509   3.430341   0.000000
     5  H    1.014792   2.010118   2.499613   1.665700   0.000000
     6  O    2.296362   1.244398   2.372308   2.782546   3.162591
     7  H    3.116893   2.125931   1.093322   4.094891   3.268207
     8  H    3.149163   2.123634   1.093056   4.090137   3.264535
     9  H    2.543791   2.188197   1.092520   3.551293   2.171257
                    6          7          8          9
     6  O    0.000000
     7  H    2.674729   0.000000
     8  H    2.649043   1.762284   0.000000
     9  H    3.293425   1.783877   1.783745   0.000000
 Stoichiometry    C2H5NO
 Framework group  C1[X(C2H5NO)]
 Deg. of freedom    21
 Full point group                 C1      NOp   1
 Largest Abelian subgroup         C1      NOp   1
 Largest concise Abelian subgroup C1      NOp   1
                         Standard orientation:                         
 ---------------------------------------------------------------------
 Center     Atomic      Atomic             Coordinates (Angstroms)
 Number     Number       Type             X           Y           Z
 ---------------------------------------------------------------------
      1          7           0       -1.128246   -0.688366    0.022586
      2          6           0       -0.077981    0.145570   -0.001350
      3          6           0        1.284073   -0.503448   -0.000549
      4          1           0       -2.145556   -0.548202   -0.054224
      5          1           0       -0.921485   -1.677823   -0.067018
      6          8           0       -0.147793    1.388007   -0.003208
      7          1           0        1.820660   -0.183472    0.896692
      8          1           0        1.841991   -0.133805   -0.864762
      9          1           0        1.247902   -1.594923   -0.031732
 ---------------------------------------------------------------------
 Rotational constants (GHZ):          10.5735227           9.4674456           5.1558568
 Standard basis: 6-31G(d) (6D, 7F)
 There are    70 symmetry adapted cartesian basis functions of A   symmetry.
 There are    70 symmetry adapted basis functions of A   symmetry.
    70 basis functions,   132 primitive gaussians,    70 cartesian basis functions
    16 alpha electrons       16 beta electrons
       nuclear repulsion energy       121.3726008980 Hartrees.
 NAtoms=    9 NActive=    9 NUniq=    9 SFac= 1.00D+00 NAtFMM=   60 NAOKFM=F Big=F
 Integral buffers will be    131072 words long.
 Raffenetti 2 integral format.
 Two-electron integral symmetry is turned on.
 One-electron integrals computed using PRISM.
 NBasis=    70 RedAO= T EigKep=  3.66D-03  NBF=    70
 NBsUse=    70 1.00D-06 EigRej= -1.00D+00 NBFU=    70
 ExpMin= 1.61D-01 ExpMax= 5.48D+03 ExpMxC= 8.25D+02 IAcc=3 IRadAn=         5 AccDes= 0.00D+00
 Harris functional with IExCor= 4538 and IRadAn=       5 diagonalized for initial guess.
 HarFok:  IExCor= 4538 AccDes= 0.00D+00 IRadAn=         5 IDoV= 1 UseB2=F ITyADJ=14
 ICtDFT=  3500011 ScaDFX=  1.000000  1.000000  1.000000  1.000000
 FoFCou: FMM=F IPFlag=           0 FMFlag=      100000 FMFlg1=           0
         NFxFlg=           0 DoJE=T BraDBF=F KetDBF=T FulRan=T
         wScrn=  0.000000 ICntrl=       500 IOpCl=  0 I1Cent=   200000004 NGrid=           0
         NMat0=    1 NMatS0=      1 NMatT0=    0 NMatD0=    1 NMtDS0=    0 NMtDT0=    0
 Petite list used in FoFCou.
 Keep R1 ints in memory in canonical form, NReq=7962857.
 Requested convergence on RMS density matrix=1.00D-08 within 128 cycles.
 Requested convergence on MAX density matrix=1.00D-06.
 Requested convergence on             energy=1.00D-06.
 No special actions if energy rises.
 Integral accuracy reduced to 1.0D-05 until final iterations.
 Initial convergence to 1.0D-05 achieved.  Increase integral accuracy.
 SCF Done:  E(RwB97X) =  -209.149385596     A.U. after   15 cycles
            NFock= 15  Conv=0.30D-08     -V/T= 2.0095

 **********************************************************************

            Population analysis using the SCF density.

 **********************************************************************

 Orbital symmetries:
       Occupied  (A) (A) (A) (A) (A) (A) (A) (A) (A) (A) (A) (A)
                 (A) (A) (A) (A)
       Virtual   (A) (A) (A) (A) (A) (A) (A) (A) (A) (A) (A) (A)
                 (A) (A) (A) (A) (A) (A) (A) (A) (A) (A) (A) (A)
                 (A) (A) (A) (A) (A) (A) (A) (A) (A) (A) (A) (A)
                 (A) (A) (A) (A) (A) (A) (A) (A) (A) (A) (A) (A)
                 (A) (A) (A) (A) (A) (A)
 The electronic state is 1-A.
 Alpha  occ. eigenvalues --  -19.16233 -14.44144 -10.37356 -10.27299  -1.13744
 Alpha  occ. eigenvalues --   -1.03399  -0.86540  -0.72136  -0.63664  -0.57953
 Alpha  occ. eigenvalues --   -0.55575  -0.50774  -0.48980  -0.46637  -0.36231
 Alpha  occ. eigenvalues --   -0.33864
 Alpha virt. eigenvalues --    0.12991   0.16358   0.20045   0.23402   0.27634
 Alpha virt. eigenvalues --    0.28114   0.33998   0.40940   0.51583   0.63863
 Alpha virt. eigenvalues --    0.65002   0.67559   0.73683   0.73853   0.79280
 Alpha virt. eigenvalues --    0.81924   0.83996   0.89541   0.96456   0.98208
 Alpha virt. eigenvalues --    0.99263   1.01326   1.04748   1.07121   1.16557
 Alpha virt. eigenvalues --    1.21628   1.30926   1.34738   1.44399   1.45167
 Alpha virt. eigenvalues --    1.53817   1.74993   1.81598   1.89065   1.93737
 Alpha virt. eigenvalues --    1.94761   1.99888   2.07521   2.12745   2.14907
 Alpha virt. eigenvalues --    2.33049   2.33716   2.43210   2.50738   2.54176
 Alpha virt. eigenvalues --    2.72960   2.75925   2.91853   3.07879   3.21409
 Alpha virt. eigenvalues --    3.90562   4.15016   4.29223   4.58346
          Condensed to atoms (all electrons):
               1          2          3          4          5          6
     1  N    7.089330   0.261593  -0.121572   0.310211   0.305661  -0.085943
     2  C    0.261593   4.289510   0.344422  -0.006458  -0.012751   0.615114
     3  C   -0.121572   0.344422   5.330431   0.005548   0.001821  -0.089954
     4  H    0.310211  -0.006458   0.005548   0.350999  -0.026079   0.001408
     5  H    0.305661  -0.012751   0.001821  -0.026079   0.385569   0.002934
     6  O   -0.085943   0.615114  -0.089954   0.001408   0.002934   8.061615
     7  H    0.001293  -0.020902   0.374331  -0.000117   0.000068  -0.000210
     8  H    0.001470  -0.021596   0.374489  -0.000134  -0.000025   0.000063
     9  H    0.006223  -0.025968   0.341634  -0.000111   0.002161   0.003717
               7          8          9
     1  N    0.001293   0.001470   0.006223
     2  C   -0.020902  -0.021596  -0.025968
     3  C    0.374331   0.374489   0.341634
     4  H   -0.000117  -0.000134  -0.000111
     5  H    0.000068  -0.000025   0.002161
     6  O   -0.000210   0.000063   0.003717
     7  H    0.481788  -0.018884  -0.022876
     8  H   -0.018884   0.483615  -0.023170
     9  H   -0.022876  -0.023170   0.572321
 Mulliken charges:
               1
     1  N   -0.768265
     2  C    0.577036
     3  C   -0.561151
     4  H    0.364731
     5  H    0.340641
     6  O   -0.508743
     7  H    0.205509
     8  H    0.204173
     9  H    0.146069
 Sum of Mulliken charges =  -0.00000
 Mulliken charges with hydrogens summed into heavy atoms:
               1
     1  N   -0.062893
     2  C    0.577036
     3  C   -0.005400
     6  O   -0.508743
 Electronic spatial extent (au):  <R**2>=            267.4319
 Charge=             -0.0000 electrons
 Dipole moment (field-independent basis, Debye):
    X=             -0.6413    Y=             -4.1490    Z=             -0.2657  Tot=              4.2066
 Quadrupole moment (field-independent basis, Debye-Ang):
   XX=            -18.8028   YY=            -26.3439   ZZ=            -24.5184
   XY=              2.1627   XZ=              0.4655   YZ=              0.3564
 Traceless Quadrupole moment (field-independent basis, Debye-Ang):
   XX=              4.4189   YY=             -3.1222   ZZ=             -1.2967
   XY=              2.1627   XZ=              0.4655   YZ=              0.3564
 Octapole moment (field-independent basis, Debye-Ang**2):
  XXX=            -13.9324  YYY=            -10.9429  ZZZ=             -0.1643  XYY=             -3.3497
  XXY=             -2.1080  XXZ=             -0.7614  XZZ=              1.1507  YZZ=              1.9192
  YYZ=             -0.5208  XYZ=             -0.4686
 Hexadecapole moment (field-independent basis, Debye-Ang**3):
 XXXX=           -136.6310 YYYY=           -128.3421 ZZZZ=            -27.9877 XXXY=             11.1607
 XXXZ=              1.6342 YYYX=              7.9900 YYYZ=              0.9813 ZZZX=              0.5192
 ZZZY=              0.2168 XXYY=            -48.4656 XXZZ=            -31.7777 YYZZ=            -27.8602
 XXYZ=              0.5627 YYXZ=              0.5312 ZZXY=              0.4085
 N-N= 1.213726008980D+02 E-N=-7.312880695757D+02  KE= 2.071871735163D+02
 1\1\GINC-NODE67\SP\RwB97X\6-31G(d)\C2H5N1O1\YANZ\22-Sep-2023\0\\# 6-31
 g(d) wb97x\\tmpdir/M2_ref_88.gjf\\0,1\N,0,10.320992,28.859058,35.83311
 9\C,0,11.007796,27.716505,35.684957\C,0,12.27388,27.805053,34.86911\H,
 0,9.49325517,29.12089718,36.3869762\H,0,10.761911,29.700605,35.476478\
 O,0,10.669927,26.610971,36.14557\H,0,12.173475,27.149411,33.99997\H,0,
 13.100371,27.422715,35.473677\H,0,12.507711,28.818308,34.534092\\Versi
 on=ES64L-G16RevA.03\State=1-A\HF=-209.1493856\RMSD=3.039e-09\Dipole=0.
 2170696,1.599187,-0.3668102\Quadrupole=1.003454,-0.2944923,-0.7089616,
 -2.4864226,-0.9517371,1.855976\PG=C01 [X(C2H5N1O1)]\\@


 CHRISTMAS IS ON TOP OF A STEEP HILL.
 THE CLOSER YOU GET, THE STEEPER THE HILL IS.
          -- LINUS, OF PEANUTS
 Job cpu time:       0 days  0 hours  0 minutes 22.1 seconds.
 Elapsed time:       0 days  0 hours  0 minutes 11.1 seconds.
 File lengths (MBytes):  RWF=      6 Int=      0 D2E=      0 Chk=      1 Scr=      1
 Normal termination of Gaussian 16 at Fri Sep 22 16:29:59 2023.
