 Entering Gaussian System, Link 0=g16
 Initial command:
 /share/apps/gaussian/g16/l1.exe "/tmp/55568.mgr/Gau-353360.inp" -scrdir="/tmp/55568.mgr/"
 Entering Link 1 = /share/apps/gaussian/g16/l1.exe PID=    353361.
  
 Copyright (c) 1988,1990,1992,1993,1995,1998,2003,2009,2016,
            Gaussian, Inc.  All Rights Reserved.
  
 This is part of the Gaussian(R) 16 program.  It is based on
 the Gaussian(R) 09 system (copyright 2009, Gaussian, Inc.),
 the Gaussian(R) 03 system (copyright 2003, Gaussian, Inc.),
 the Gaussian(R) 98 system (copyright 1998, Gaussian, Inc.),
 the Gaussian(R) 94 system (copyright 1995, Gaussian, Inc.),
 the Gaussian 92(TM) system (copyright 1992, Gaussian, Inc.),
 the Gaussian 90(TM) system (copyright 1990, Gaussian, Inc.),
 the Gaussian 88(TM) system (copyright 1988, Gaussian, Inc.),
 the Gaussian 86(TM) system (copyright 1986, Carnegie Mellon
 University), and the Gaussian 82(TM) system (copyright 1983,
 Carnegie Mellon University). Gaussian is a federally registered
 trademark of Gaussian, Inc.
  
 This software contains proprietary and confidential information,
 including trade secrets, belonging to Gaussian, Inc.
  
 This software is provided under written license and may be
 used, copied, transmitted, or stored only in accord with that
 written license.
  
 The following legend is applicable only to US Government
 contracts under FAR:
  
                    RESTRICTED RIGHTS LEGEND
  
 Use, reproduction and disclosure by the US Government is
 subject to restrictions as set forth in subparagraphs (a)
 and (c) of the Commercial Computer Software - Restricted
 Rights clause in FAR 52.227-19.
  
 Gaussian, Inc.
 340 Quinnipiac St., Bldg. 40, Wallingford CT 06492
  
  
 ---------------------------------------------------------------
 Warning -- This program may not be used in any manner that
 competes with the business of Gaussian, Inc. or will provide
 assistance to any competitor of Gaussian, Inc.  The licensee
 of this program is prohibited from giving any competitor of
 Gaussian, Inc. access to this program.  By using this program,
 the user acknowledges that Gaussian, Inc. is engaged in the
 business of creating and licensing software in the field of
 computational chemistry and represents and warrants to the
 licensee that it is not a competitor of Gaussian, Inc. and that
 it will not use this program in any manner prohibited above.
 ---------------------------------------------------------------
  

 Cite this work as:
 Gaussian 16, Revision A.03,
 M. J. Frisch, G. W. Trucks, H. B. Schlegel, G. E. Scuseria, 
 M. A. Robb, J. R. Cheeseman, G. Scalmani, V. Barone, 
 G. A. Petersson, H. Nakatsuji, X. Li, M. Caricato, A. V. Marenich, 
 J. Bloino, B. G. Janesko, R. Gomperts, B. Mennucci, H. P. Hratchian, 
 J. V. Ortiz, A. F. Izmaylov, J. L. Sonnenberg, D. Williams-Young, 
 F. Ding, F. Lipparini, F. Egidi, J. Goings, B. Peng, A. Petrone, 
 T. Henderson, D. Ranasinghe, V. G. Zakrzewski, J. Gao, N. Rega, 
 G. Zheng, W. Liang, M. Hada, M. Ehara, K. Toyota, R. Fukuda, 
 J. Hasegawa, M. Ishida, T. Nakajima, Y. Honda, O. Kitao, H. Nakai, 
 T. Vreven, K. Throssell, J. A. Montgomery, Jr., J. E. Peralta, 
 F. Ogliaro, M. J. Bearpark, J. J. Heyd, E. N. Brothers, K. N. Kudin, 
 V. N. Staroverov, T. A. Keith, R. Kobayashi, J. Normand, 
 K. Raghavachari, A. P. Rendell, J. C. Burant, S. S. Iyengar, 
 J. Tomasi, M. Cossi, J. M. Millam, M. Klene, C. Adamo, R. Cammi, 
 J. W. Ochterski, R. L. Martin, K. Morokuma, O. Farkas, 
 J. B. Foresman, and D. J. Fox, Gaussian, Inc., Wallingford CT, 2016.
 
 ******************************************
 Gaussian 16:  ES64L-G16RevA.03 25-Dec-2016
                22-Sep-2023 
 ******************************************
 %nprocshared=2
 Will use up to    2 processors via shared memory.
 %mem=2GB
 ----------------
 # 6-31g(d) wb97x
 ----------------
 1/38=1,172=1/1;
 2/12=2,17=6,18=5,40=1/2;
 3/5=1,6=6,7=1,11=2,25=1,30=1,74=-57/1,2,3;
 4//1;
 5/5=2,38=5/2;
 6/7=2,8=2,9=2,10=2,28=1/1;
 99/5=1,9=1/99;
 --------------------
 tmpdir/M2_ref_41.gjf
 --------------------
 Symbolic Z-matrix:
 Charge =  0 Multiplicity = 1
 C                     8.00719   28.21102   36.75394 
 C                     9.13883   29.23301   36.62413 
 N                     10.32099   28.85906   35.83312 
 H                     7.16806   28.60906   37.35314 
 H                     8.37618   27.22146   37.28808 
 H                     7.68017   27.90277   35.75447 
 H                     8.73616   30.15225   36.12293 
 H                     9.46581   29.53373   37.63046 
 H                     10.80188   28.05905   35.72938 
 H                     10.76191   29.7006   35.47648 
 
                          Input orientation:                          
 ---------------------------------------------------------------------
 Center     Atomic      Atomic             Coordinates (Angstroms)
 Number     Number       Type             X           Y           Z
 ---------------------------------------------------------------------
      1          6           0        8.007186   28.211016   36.753941
      2          6           0        9.138830   29.233013   36.624130
      3          7           0       10.320992   28.859058   35.833119
      4          1           0        7.168058   28.609058   37.353136
      5          1           0        8.376176   27.221461   37.288076
      6          1           0        7.680165   27.902771   35.754467
      7          1           0        8.736157   30.152249   36.122931
      8          1           0        9.465810   29.533731   37.630456
      9          1           0       10.801885   28.059055   35.729378
     10          1           0       10.761911   29.700605   35.476478
 ---------------------------------------------------------------------
                    Distance matrix (angstroms):
                    1          2          3          4          5
     1  C    0.000000
     2  C    1.530342   0.000000
     3  N    2.573241   1.470730   0.000000
     4  H    1.105264   2.191965   3.509123   0.000000
     5  H    1.183500   2.251401   2.929323   1.840980   0.000000
     6  H    1.095859   2.157211   2.809740   1.821219   1.816748
     7  H    2.167477   1.121758   2.065923   2.520670   3.174377
     8  H    2.155328   1.100018   2.101652   2.492306   2.578976
     9  H    2.980463   2.223625   0.939162   4.017934   3.002527
    10  H    3.382203   2.042092   1.014792   4.198702   3.888416
                    6          7          8          9         10
     6  H    0.000000
     7  H    2.512178   0.000000
     8  H    3.060701   1.785382   0.000000
     9  H    3.125730   2.967082   2.752065   0.000000
    10  H    3.578637   2.173836   2.519394   1.661398   0.000000
 Stoichiometry    C2H7N
 Framework group  C1[X(C2H7N)]
 Deg. of freedom    24
 Full point group                 C1      NOp   1
 Largest Abelian subgroup         C1      NOp   1
 Largest concise Abelian subgroup C1      NOp   1
                         Standard orientation:                         
 ---------------------------------------------------------------------
 Center     Atomic      Atomic             Coordinates (Angstroms)
 Number     Number       Type             X           Y           Z
 ---------------------------------------------------------------------
      1          6           0       -1.304492   -0.223093   -0.051109
      2          6           0        0.031218    0.513540    0.072171
      3          7           0        1.268039   -0.276566   -0.022977
      4          1           0       -2.159700    0.473716    0.017352
      5          1           0       -1.439135   -1.023299    0.810409
      6          1           0       -1.320101   -0.791969   -0.987614
      7          1           0        0.104692    1.264315   -0.758057
      8          1           0        0.042258    1.077687    1.016446
      9          1           0        1.515094   -1.128875    0.284528
     10          1           0        2.020261    0.321711   -0.348600
 ---------------------------------------------------------------------
 Rotational constants (GHZ):          34.9059564           8.2226455           7.3423743
 Standard basis: 6-31G(d) (6D, 7F)
 There are    59 symmetry adapted cartesian basis functions of A   symmetry.
 There are    59 symmetry adapted basis functions of A   symmetry.
    59 basis functions,   112 primitive gaussians,    59 cartesian basis functions
    13 alpha electrons       13 beta electrons
       nuclear repulsion energy        81.7840573541 Hartrees.
 NAtoms=   10 NActive=   10 NUniq=   10 SFac= 1.00D+00 NAtFMM=   60 NAOKFM=F Big=F
 Integral buffers will be    131072 words long.
 Raffenetti 2 integral format.
 Two-electron integral symmetry is turned on.
 One-electron integrals computed using PRISM.
 NBasis=    59 RedAO= T EigKep=  6.22D-03  NBF=    59
 NBsUse=    59 1.00D-06 EigRej= -1.00D+00 NBFU=    59
 ExpMin= 1.61D-01 ExpMax= 4.17D+03 ExpMxC= 6.27D+02 IAcc=3 IRadAn=         5 AccDes= 0.00D+00
 Harris functional with IExCor= 4538 and IRadAn=       5 diagonalized for initial guess.
 HarFok:  IExCor= 4538 AccDes= 0.00D+00 IRadAn=         5 IDoV= 1 UseB2=F ITyADJ=14
 ICtDFT=  3500011 ScaDFX=  1.000000  1.000000  1.000000  1.000000
 FoFCou: FMM=F IPFlag=           0 FMFlag=      100000 FMFlg1=           0
         NFxFlg=           0 DoJE=T BraDBF=F KetDBF=T FulRan=T
         wScrn=  0.000000 ICntrl=       500 IOpCl=  0 I1Cent=   200000004 NGrid=           0
         NMat0=    1 NMatS0=      1 NMatT0=    0 NMatD0=    1 NMtDS0=    0 NMtDT0=    0
 Petite list used in FoFCou.
 Keep R1 ints in memory in canonical form, NReq=4895189.
 Requested convergence on RMS density matrix=1.00D-08 within 128 cycles.
 Requested convergence on MAX density matrix=1.00D-06.
 Requested convergence on             energy=1.00D-06.
 No special actions if energy rises.
 Integral accuracy reduced to 1.0D-05 until final iterations.
 Initial convergence to 1.0D-05 achieved.  Increase integral accuracy.
 SCF Done:  E(RwB97X) =  -135.104688109     A.U. after   13 cycles
            NFock= 13  Conv=0.36D-08     -V/T= 2.0108

 **********************************************************************

            Population analysis using the SCF density.

 **********************************************************************

 Orbital symmetries:
       Occupied  (A) (A) (A) (A) (A) (A) (A) (A) (A) (A) (A) (A)
                 (A)
       Virtual   (A) (A) (A) (A) (A) (A) (A) (A) (A) (A) (A) (A)
                 (A) (A) (A) (A) (A) (A) (A) (A) (A) (A) (A) (A)
                 (A) (A) (A) (A) (A) (A) (A) (A) (A) (A) (A) (A)
                 (A) (A) (A) (A) (A) (A) (A) (A) (A) (A)
 The electronic state is 1-A.
 Alpha  occ. eigenvalues --  -14.36321 -10.29243 -10.26394  -0.98682  -0.85037
 Alpha  occ. eigenvalues --   -0.72242  -0.59785  -0.55723  -0.53779  -0.47007
 Alpha  occ. eigenvalues --   -0.45856  -0.43455  -0.30068
 Alpha virt. eigenvalues --    0.18820   0.21670   0.24010   0.26350   0.27012
 Alpha virt. eigenvalues --    0.28240   0.31007   0.32877   0.37268   0.63618
 Alpha virt. eigenvalues --    0.65470   0.67797   0.70841   0.78682   0.80066
 Alpha virt. eigenvalues --    0.87792   0.90893   0.96588   0.97061   0.98679
 Alpha virt. eigenvalues --    1.02147   1.05827   1.07700   1.10317   1.14169
 Alpha virt. eigenvalues --    1.20036   1.35418   1.54370   1.61809   1.76001
 Alpha virt. eigenvalues --    1.82326   1.96016   2.04738   2.07363   2.17780
 Alpha virt. eigenvalues --    2.23556   2.30656   2.38553   2.46466   2.48957
 Alpha virt. eigenvalues --    2.59600   2.78833   2.85638   3.91323   4.29813
 Alpha virt. eigenvalues --    4.54383
          Condensed to atoms (all electrons):
               1          2          3          4          5          6
     1  C    5.103965   0.367452  -0.047348   0.374278   0.376144   0.373435
     2  C    0.367452   4.786368   0.302161  -0.027096  -0.032396  -0.035331
     3  N   -0.047348   0.302161   6.960622   0.002975  -0.001833   0.004333
     4  H    0.374278  -0.027096   0.002975   0.541280  -0.026552  -0.021311
     5  H    0.376144  -0.032396  -0.001833  -0.026552   0.583221  -0.030559
     6  H    0.373435  -0.035331   0.004333  -0.021311  -0.030559   0.544306
     7  H   -0.030399   0.394352  -0.046456  -0.003075   0.004162  -0.006003
     8  H   -0.051688   0.395601  -0.063039   0.000489  -0.005304   0.005673
     9  H   -0.001582  -0.022308   0.352152  -0.000045   0.001402   0.000054
    10  H    0.003656  -0.032448   0.341168  -0.000127  -0.000036  -0.000009
               7          8          9         10
     1  C   -0.030399  -0.051688  -0.001582   0.003656
     2  C    0.394352   0.395601  -0.022308  -0.032448
     3  N   -0.046456  -0.063039   0.352152   0.341168
     4  H   -0.003075   0.000489  -0.000045  -0.000127
     5  H    0.004162  -0.005304   0.001402  -0.000036
     6  H   -0.006003   0.005673   0.000054  -0.000009
     7  H    0.598077  -0.046565   0.003544  -0.006296
     8  H   -0.046565   0.629378   0.000467   0.000993
     9  H    0.003544   0.000467   0.366796  -0.028216
    10  H   -0.006296   0.000993  -0.028216   0.409037
 Mulliken charges:
               1
     1  C   -0.467913
     2  C   -0.096357
     3  N   -0.804736
     4  H    0.159183
     5  H    0.131749
     6  H    0.165411
     7  H    0.138657
     8  H    0.133993
     9  H    0.327736
    10  H    0.312277
 Sum of Mulliken charges =  -0.00000
 Mulliken charges with hydrogens summed into heavy atoms:
               1
     1  C   -0.011571
     2  C    0.176293
     3  N   -0.164722
 Electronic spatial extent (au):  <R**2>=            216.6945
 Charge=              0.0000 electrons
 Dipole moment (field-independent basis, Debye):
    X=              0.3155    Y=              0.1444    Z=              0.0809  Tot=              0.3563
 Quadrupole moment (field-independent basis, Debye-Ang):
   XX=            -18.6567   YY=            -19.3015   ZZ=            -21.5777
   XY=             -0.3045   XZ=             -0.2051   YZ=             -1.2222
 Traceless Quadrupole moment (field-independent basis, Debye-Ang):
   XX=              1.1886   YY=              0.5438   ZZ=             -1.7324
   XY=             -0.3045   XZ=             -0.2051   YZ=             -1.2222
 Octapole moment (field-independent basis, Debye-Ang**2):
  XXX=             10.4660  YYY=             -2.6094  ZZZ=             -0.1620  XYY=              3.6218
  XXY=              0.4537  XXZ=             -1.0488  XZZ=              0.2192  YZZ=             -0.0670
  YYZ=              0.5875  XYZ=             -1.6757
 Hexadecapole moment (field-independent basis, Debye-Ang**3):
 XXXX=           -172.2278 YYYY=            -56.8222 ZZZZ=            -37.0019 XXXY=             -4.4813
 XXXZ=             -3.6523 YYYX=             -4.5668 YYYZ=             -2.2771 ZZZX=              0.4371
 ZZZY=             -0.6267 XXYY=            -36.3881 XXZZ=            -39.5574 YYZZ=            -14.8022
 XXYZ=             -2.7473 YYXZ=              0.8141 ZZXY=              0.9215
 N-N= 8.178405735410D+01 E-N=-4.766735649141D+02  KE= 1.336674673631D+02
 1\1\GINC-NODE67\SP\RwB97X\6-31G(d)\C2H7N1\YANZ\22-Sep-2023\0\\# 6-31g(
 d) wb97x\\tmpdir/M2_ref_41.gjf\\0,1\C,0,8.007186,28.211016,36.753941\C
 ,0,9.13883,29.233013,36.62413\N,0,10.320992,28.859058,35.833119\H,0,7.
 16805807,28.60905847,37.35313619\H,0,8.37617572,27.22146116,37.2880763
 5\H,0,7.680165,27.902771,35.754467\H,0,8.73615683,30.15224905,36.12293
 088\H,0,9.46581,29.533731,37.630456\H,0,10.80188461,28.05905496,35.729
 3776\H,0,10.761911,29.700605,35.476478\\Version=ES64L-G16RevA.03\State
 =1-A\HF=-135.1046881\RMSD=3.559e-09\Dipole=0.115638,0.0792285,0.001833
 2\Quadrupole=0.5404866,0.6544518,-1.1949384,-0.2666881,-0.9661572,-0.3
 509552\PG=C01 [X(C2H7N1)]\\@


 GOD DOES NOT PLAY WITH DICE.
               -- A. EINSTEIN
 Job cpu time:       0 days  0 hours  0 minutes 18.0 seconds.
 Elapsed time:       0 days  0 hours  0 minutes  9.1 seconds.
 File lengths (MBytes):  RWF=      6 Int=      0 D2E=      0 Chk=      1 Scr=      1
 Normal termination of Gaussian 16 at Fri Sep 22 16:29:36 2023.
