 Entering Gaussian System, Link 0=g16
 Initial command:
 /share/apps/gaussian/g16/l1.exe "/tmp/55568.mgr/Gau-353153.inp" -scrdir="/tmp/55568.mgr/"
 Entering Link 1 = /share/apps/gaussian/g16/l1.exe PID=    353154.
  
 Copyright (c) 1988,1990,1992,1993,1995,1998,2003,2009,2016,
            Gaussian, Inc.  All Rights Reserved.
  
 This is part of the Gaussian(R) 16 program.  It is based on
 the Gaussian(R) 09 system (copyright 2009, Gaussian, Inc.),
 the Gaussian(R) 03 system (copyright 2003, Gaussian, Inc.),
 the Gaussian(R) 98 system (copyright 1998, Gaussian, Inc.),
 the Gaussian(R) 94 system (copyright 1995, Gaussian, Inc.),
 the Gaussian 92(TM) system (copyright 1992, Gaussian, Inc.),
 the Gaussian 90(TM) system (copyright 1990, Gaussian, Inc.),
 the Gaussian 88(TM) system (copyright 1988, Gaussian, Inc.),
 the Gaussian 86(TM) system (copyright 1986, Carnegie Mellon
 University), and the Gaussian 82(TM) system (copyright 1983,
 Carnegie Mellon University). Gaussian is a federally registered
 trademark of Gaussian, Inc.
  
 This software contains proprietary and confidential information,
 including trade secrets, belonging to Gaussian, Inc.
  
 This software is provided under written license and may be
 used, copied, transmitted, or stored only in accord with that
 written license.
  
 The following legend is applicable only to US Government
 contracts under FAR:
  
                    RESTRICTED RIGHTS LEGEND
  
 Use, reproduction and disclosure by the US Government is
 subject to restrictions as set forth in subparagraphs (a)
 and (c) of the Commercial Computer Software - Restricted
 Rights clause in FAR 52.227-19.
  
 Gaussian, Inc.
 340 Quinnipiac St., Bldg. 40, Wallingford CT 06492
  
  
 ---------------------------------------------------------------
 Warning -- This program may not be used in any manner that
 competes with the business of Gaussian, Inc. or will provide
 assistance to any competitor of Gaussian, Inc.  The licensee
 of this program is prohibited from giving any competitor of
 Gaussian, Inc. access to this program.  By using this program,
 the user acknowledges that Gaussian, Inc. is engaged in the
 business of creating and licensing software in the field of
 computational chemistry and represents and warrants to the
 licensee that it is not a competitor of Gaussian, Inc. and that
 it will not use this program in any manner prohibited above.
 ---------------------------------------------------------------
  

 Cite this work as:
 Gaussian 16, Revision A.03,
 M. J. Frisch, G. W. Trucks, H. B. Schlegel, G. E. Scuseria, 
 M. A. Robb, J. R. Cheeseman, G. Scalmani, V. Barone, 
 G. A. Petersson, H. Nakatsuji, X. Li, M. Caricato, A. V. Marenich, 
 J. Bloino, B. G. Janesko, R. Gomperts, B. Mennucci, H. P. Hratchian, 
 J. V. Ortiz, A. F. Izmaylov, J. L. Sonnenberg, D. Williams-Young, 
 F. Ding, F. Lipparini, F. Egidi, J. Goings, B. Peng, A. Petrone, 
 T. Henderson, D. Ranasinghe, V. G. Zakrzewski, J. Gao, N. Rega, 
 G. Zheng, W. Liang, M. Hada, M. Ehara, K. Toyota, R. Fukuda, 
 J. Hasegawa, M. Ishida, T. Nakajima, Y. Honda, O. Kitao, H. Nakai, 
 T. Vreven, K. Throssell, J. A. Montgomery, Jr., J. E. Peralta, 
 F. Ogliaro, M. J. Bearpark, J. J. Heyd, E. N. Brothers, K. N. Kudin, 
 V. N. Staroverov, T. A. Keith, R. Kobayashi, J. Normand, 
 K. Raghavachari, A. P. Rendell, J. C. Burant, S. S. Iyengar, 
 J. Tomasi, M. Cossi, J. M. Millam, M. Klene, C. Adamo, R. Cammi, 
 J. W. Ochterski, R. L. Martin, K. Morokuma, O. Farkas, 
 J. B. Foresman, and D. J. Fox, Gaussian, Inc., Wallingford CT, 2016.
 
 ******************************************
 Gaussian 16:  ES64L-G16RevA.03 25-Dec-2016
                22-Sep-2023 
 ******************************************
 %nprocshared=2
 Will use up to    2 processors via shared memory.
 %mem=2GB
 ----------------
 # 6-31g(d) wb97x
 ----------------
 1/38=1,172=1/1;
 2/12=2,17=6,18=5,40=1/2;
 3/5=1,6=6,7=1,11=2,25=1,30=1,74=-57/1,2,3;
 4//1;
 5/5=2,38=5/2;
 6/7=2,8=2,9=2,10=2,28=1/1;
 99/5=1,9=1/99;
 --------------------
 tmpdir/M2_ref_42.gjf
 --------------------
 Symbolic Z-matrix:
 Charge =  0 Multiplicity = 1
 C                     8.00719   28.21102   36.75394 
 C                     9.13883   29.23301   36.62413 
 C                     8.58256   30.50288   35.93176 
 H                     7.16806   28.60906   37.35314 
 H                     8.37618   27.22146   37.28808 
 H                     7.68017   27.90277   35.75447 
 H                     10.06802   28.93908   36.00239 
 H                     9.46581   29.53373   37.63046 
 H                     7.67513   30.85302   36.41454 
 H                     9.46824   31.26495   35.94572 
 H                     8.38576   30.23446   34.87678 
 
                          Input orientation:                          
 ---------------------------------------------------------------------
 Center     Atomic      Atomic             Coordinates (Angstroms)
 Number     Number       Type             X           Y           Z
 ---------------------------------------------------------------------
      1          6           0        8.007186   28.211016   36.753941
      2          6           0        9.138830   29.233013   36.624130
      3          6           0        8.582564   30.502876   35.931757
      4          1           0        7.168058   28.609058   37.353136
      5          1           0        8.376176   27.221461   37.288076
      6          1           0        7.680165   27.902771   35.754467
      7          1           0       10.068022   28.939080   36.002387
      8          1           0        9.465810   29.533731   37.630456
      9          1           0        7.675128   30.853015   36.414543
     10          1           0        9.468244   31.264949   35.945716
     11          1           0        8.385764   30.234457   34.876776
 ---------------------------------------------------------------------
                    Distance matrix (angstroms):
                    1          2          3          4          5
     1  C    0.000000
     2  C    1.530342   0.000000
     3  C    2.501933   1.549634   0.000000
     4  H    1.105264   2.191965   2.758204   0.000000
     5  H    1.183500   2.251401   3.556667   1.840980   0.000000
     6  H    1.095859   2.157211   2.757952   1.821219   1.816748
     7  H    2.311268   1.156010   2.158016   3.216089   2.732317
     8  H    2.155328   1.100018   2.145913   2.492306   2.578976
     9  H    2.684327   2.193344   1.085873   2.484637   3.800357
    10  H    3.480579   2.167377   1.168495   3.784897   4.398220
    11  H    2.785926   2.150173   1.106239   3.202669   3.859094
                    6          7          8          9         10
     6  H    0.000000
     7  H    2.614816   0.000000
     8  H    3.060701   1.834906   0.000000
     9  H    3.023188   3.091757   2.534856   0.000000
    10  H    3.812879   2.402626   2.415672   1.898619   0.000000
    11  H    2.589396   2.403122   3.039781   1.803426   1.837474
                   11
    11  H    0.000000
 Stoichiometry    C3H8
 Framework group  C1[X(C3H8)]
 Deg. of freedom    27
 Full point group                 C1      NOp   1
 Largest Abelian subgroup         C1      NOp   1
 Largest concise Abelian subgroup C1      NOp   1
                         Standard orientation:                         
 ---------------------------------------------------------------------
 Center     Atomic      Atomic             Coordinates (Angstroms)
 Number     Number       Type             X           Y           Z
 ---------------------------------------------------------------------
      1          6           0       -1.252674   -0.264268    0.011913
      2          6           0        0.000833    0.613114   -0.017562
      3          6           0        1.248839   -0.305449   -0.008227
      4          1           0       -1.296088   -0.938924   -0.862479
      5          1           0       -2.239356    0.389075   -0.004650
      6          1           0       -1.283386   -0.821678    0.954917
      7          1           0        0.168791    1.350600    0.856660
      8          1           0        0.022412    1.173628   -0.963816
      9          1           0        1.183445   -1.071760   -0.774786
     10          1           0        2.157227    0.420944   -0.120312
     11          1           0        1.304974   -0.762261    0.997723
 ---------------------------------------------------------------------
 Rotational constants (GHZ):          27.6047442           8.5986118           7.5275351
 Standard basis: 6-31G(d) (6D, 7F)
 There are    61 symmetry adapted cartesian basis functions of A   symmetry.
 There are    61 symmetry adapted basis functions of A   symmetry.
    61 basis functions,   116 primitive gaussians,    61 cartesian basis functions
    13 alpha electrons       13 beta electrons
       nuclear repulsion energy        81.7157766142 Hartrees.
 NAtoms=   11 NActive=   11 NUniq=   11 SFac= 1.00D+00 NAtFMM=   60 NAOKFM=F Big=F
 Integral buffers will be    131072 words long.
 Raffenetti 2 integral format.
 Two-electron integral symmetry is turned on.
 One-electron integrals computed using PRISM.
 NBasis=    61 RedAO= T EigKep=  6.31D-03  NBF=    61
 NBsUse=    61 1.00D-06 EigRej= -1.00D+00 NBFU=    61
 ExpMin= 1.61D-01 ExpMax= 3.05D+03 ExpMxC= 4.57D+02 IAcc=3 IRadAn=         5 AccDes= 0.00D+00
 Harris functional with IExCor= 4538 and IRadAn=       5 diagonalized for initial guess.
 HarFok:  IExCor= 4538 AccDes= 0.00D+00 IRadAn=         5 IDoV= 1 UseB2=F ITyADJ=14
 ICtDFT=  3500011 ScaDFX=  1.000000  1.000000  1.000000  1.000000
 FoFCou: FMM=F IPFlag=           0 FMFlag=      100000 FMFlg1=           0
         NFxFlg=           0 DoJE=T BraDBF=F KetDBF=T FulRan=T
         wScrn=  0.000000 ICntrl=       500 IOpCl=  0 I1Cent=   200000004 NGrid=           0
         NMat0=    1 NMatS0=      1 NMatT0=    0 NMatD0=    1 NMtDS0=    0 NMtDT0=    0
 Petite list used in FoFCou.
 Keep R1 ints in memory in canonical form, NReq=5346468.
 Requested convergence on RMS density matrix=1.00D-08 within 128 cycles.
 Requested convergence on MAX density matrix=1.00D-06.
 Requested convergence on             energy=1.00D-06.
 No special actions if energy rises.
 Integral accuracy reduced to 1.0D-05 until final iterations.
 Initial convergence to 1.0D-05 achieved.  Increase integral accuracy.
 SCF Done:  E(RwB97X) =  -119.090507266     A.U. after   12 cycles
            NFock= 12  Conv=0.27D-08     -V/T= 2.0129

 **********************************************************************

            Population analysis using the SCF density.

 **********************************************************************

 Orbital symmetries:
       Occupied  (A) (A) (A) (A) (A) (A) (A) (A) (A) (A) (A) (A)
                 (A)
       Virtual   (A) (A) (A) (A) (A) (A) (A) (A) (A) (A) (A) (A)
                 (A) (A) (A) (A) (A) (A) (A) (A) (A) (A) (A) (A)
                 (A) (A) (A) (A) (A) (A) (A) (A) (A) (A) (A) (A)
                 (A) (A) (A) (A) (A) (A) (A) (A) (A) (A) (A) (A)
 The electronic state is 1-A.
 Alpha  occ. eigenvalues --  -10.26948 -10.26535 -10.26124  -0.90542  -0.79361
 Alpha  occ. eigenvalues --   -0.69323  -0.56966  -0.53184  -0.49549  -0.48543
 Alpha  occ. eigenvalues --   -0.44001  -0.42446  -0.41160
 Alpha virt. eigenvalues --    0.17736   0.22714   0.23207   0.24519   0.26156
 Alpha virt. eigenvalues --    0.27761   0.28579   0.29983   0.31969   0.35301
 Alpha virt. eigenvalues --    0.61991   0.64268   0.65782   0.66446   0.68856
 Alpha virt. eigenvalues --    0.77276   0.80813   0.86127   0.90012   0.95319
 Alpha virt. eigenvalues --    0.97500   0.98203   1.01522   1.04000   1.06024
 Alpha virt. eigenvalues --    1.08328   1.09193   1.14378   1.50496   1.55074
 Alpha virt. eigenvalues --    1.57075   1.65156   1.88294   1.98571   2.00637
 Alpha virt. eigenvalues --    2.08733   2.15482   2.20487   2.29553   2.33640
 Alpha virt. eigenvalues --    2.38244   2.48418   2.49155   2.64016   2.79619
 Alpha virt. eigenvalues --    4.24994   4.39329   4.57487
          Condensed to atoms (all electrons):
               1          2          3          4          5          6
     1  C    5.090500   0.359040  -0.066312   0.384871   0.371398   0.383271
     2  C    0.359040   4.992866   0.357345  -0.033393  -0.028917  -0.038953
     3  C   -0.066312   0.357345   5.110114  -0.005105   0.004613  -0.003749
     4  H    0.384871  -0.033393  -0.005105   0.544229  -0.026403  -0.025554
     5  H    0.371398  -0.028917   0.004613  -0.026403   0.577952  -0.027711
     6  H    0.383271  -0.038953  -0.003749  -0.025554  -0.027711   0.550959
     7  H   -0.025849   0.384088  -0.041890   0.003251  -0.001821  -0.002988
     8  H   -0.040712   0.391425  -0.042604  -0.003432  -0.002738   0.004733
     9  H   -0.002692  -0.036168   0.385076   0.004642  -0.000028  -0.000309
    10  H    0.005040  -0.036441   0.373967   0.000016  -0.000136  -0.000032
    11  H   -0.003656  -0.039054   0.382061  -0.000151  -0.000097   0.004240
               7          8          9         10         11
     1  C   -0.025849  -0.040712  -0.002692   0.005040  -0.003656
     2  C    0.384088   0.391425  -0.036168  -0.036441  -0.039054
     3  C   -0.041890  -0.042604   0.385076   0.373967   0.382061
     4  H    0.003251  -0.003432   0.004642   0.000016  -0.000151
     5  H   -0.001821  -0.002738  -0.000028  -0.000136  -0.000097
     6  H   -0.002988   0.004733  -0.000309  -0.000032   0.004240
     7  H    0.578411  -0.029592   0.004432  -0.001648  -0.005405
     8  H   -0.029592   0.576299  -0.003112  -0.004110   0.005092
     9  H    0.004432  -0.003112   0.537637  -0.018951  -0.027958
    10  H   -0.001648  -0.004110  -0.018951   0.570791  -0.025841
    11  H   -0.005405   0.005092  -0.027958  -0.025841   0.560072
 Mulliken charges:
               1
     1  C   -0.454898
     2  C   -0.271838
     3  C   -0.453515
     4  H    0.157028
     5  H    0.133889
     6  H    0.156094
     7  H    0.139011
     8  H    0.148752
     9  H    0.157432
    10  H    0.137346
    11  H    0.150699
 Sum of Mulliken charges =  -0.00000
 Mulliken charges with hydrogens summed into heavy atoms:
               1
     1  C   -0.007887
     2  C    0.015925
     3  C   -0.008038
 Electronic spatial extent (au):  <R**2>=            226.9092
 Charge=             -0.0000 electrons
 Dipole moment (field-independent basis, Debye):
    X=             -0.0073    Y=             -0.0133    Z=             -0.0157  Tot=              0.0218
 Quadrupole moment (field-independent basis, Debye-Ang):
   XX=            -22.6944   YY=            -21.7652   ZZ=            -21.1418
   XY=              0.4181   XZ=              0.1771   YZ=              0.2235
 Traceless Quadrupole moment (field-independent basis, Debye-Ang):
   XX=             -0.8272   YY=              0.1019   ZZ=              0.7253
   XY=              0.4181   XZ=              0.1771   YZ=              0.2235
 Octapole moment (field-independent basis, Debye-Ang**2):
  XXX=             -0.8923  YYY=             -0.2296  ZZZ=              0.1673  XYY=              0.3823
  XXY=              1.6702  XXZ=             -0.0287  XZZ=             -0.0170  YZZ=             -0.6517
  YYZ=             -0.2893  XYZ=              0.0672
 Hexadecapole moment (field-independent basis, Debye-Ang**3):
 XXXX=           -202.6463 YYYY=            -72.4970 ZZZZ=            -43.0537 XXXY=              1.1994
 XXXZ=              0.1204 YYYX=              0.6158 YYYZ=              1.1779 ZZZX=              0.5266
 ZZZY=             -0.2101 XXYY=            -44.9745 XXZZ=            -41.3731 YYZZ=            -17.1545
 XXYZ=              0.0553 YYXZ=              0.0880 ZZXY=              0.4859
 N-N= 8.171577661422D+01 E-N=-4.376809556573D+02  KE= 1.175761732302D+02
 1\1\GINC-NODE67\SP\RwB97X\6-31G(d)\C3H8\YANZ\22-Sep-2023\0\\# 6-31g(d)
  wb97x\\tmpdir/M2_ref_42.gjf\\0,1\C,0,8.007186,28.211016,36.753941\C,0
 ,9.13883,29.233013,36.62413\C,0,8.582564,30.502876,35.931757\H,0,7.168
 05807,28.60905847,37.35313619\H,0,8.37617572,27.22146116,37.28807635\H
 ,0,7.680165,27.902771,35.754467\H,0,10.06802234,28.93908026,36.0023866
 5\H,0,9.46581,29.533731,37.630456\H,0,7.67512802,30.85301531,36.414543
 36\H,0,9.46824422,31.26494934,35.94571635\H,0,8.385764,30.234457,34.87
 6776\\Version=ES64L-G16RevA.03\State=1-A\HF=-119.0905073\RMSD=2.662e-0
 9\Dipole=-0.0070111,0.0005313,0.0049447\Quadrupole=0.2839221,-0.585988
 6,0.3020665,0.0088417,-0.2775496,0.379815\PG=C01 [X(C3H8)]\\@


 WE DON'T KNOW ONE MILLIONTH OF ONE PERCENT ABOUT
 ANYTHING.
                                     T. A. EDISON.
 Job cpu time:       0 days  0 hours  0 minutes 19.9 seconds.
 Elapsed time:       0 days  0 hours  0 minutes 10.0 seconds.
 File lengths (MBytes):  RWF=      6 Int=      0 D2E=      0 Chk=      1 Scr=      1
 Normal termination of Gaussian 16 at Fri Sep 22 16:29:29 2023.
