 Entering Gaussian System, Link 0=g16
 Initial command:
 /share/apps/gaussian/g16/l1.exe "/tmp/55568.mgr/Gau-353838.inp" -scrdir="/tmp/55568.mgr/"
 Entering Link 1 = /share/apps/gaussian/g16/l1.exe PID=    353839.
  
 Copyright (c) 1988,1990,1992,1993,1995,1998,2003,2009,2016,
            Gaussian, Inc.  All Rights Reserved.
  
 This is part of the Gaussian(R) 16 program.  It is based on
 the Gaussian(R) 09 system (copyright 2009, Gaussian, Inc.),
 the Gaussian(R) 03 system (copyright 2003, Gaussian, Inc.),
 the Gaussian(R) 98 system (copyright 1998, Gaussian, Inc.),
 the Gaussian(R) 94 system (copyright 1995, Gaussian, Inc.),
 the Gaussian 92(TM) system (copyright 1992, Gaussian, Inc.),
 the Gaussian 90(TM) system (copyright 1990, Gaussian, Inc.),
 the Gaussian 88(TM) system (copyright 1988, Gaussian, Inc.),
 the Gaussian 86(TM) system (copyright 1986, Carnegie Mellon
 University), and the Gaussian 82(TM) system (copyright 1983,
 Carnegie Mellon University). Gaussian is a federally registered
 trademark of Gaussian, Inc.
  
 This software contains proprietary and confidential information,
 including trade secrets, belonging to Gaussian, Inc.
  
 This software is provided under written license and may be
 used, copied, transmitted, or stored only in accord with that
 written license.
  
 The following legend is applicable only to US Government
 contracts under FAR:
  
                    RESTRICTED RIGHTS LEGEND
  
 Use, reproduction and disclosure by the US Government is
 subject to restrictions as set forth in subparagraphs (a)
 and (c) of the Commercial Computer Software - Restricted
 Rights clause in FAR 52.227-19.
  
 Gaussian, Inc.
 340 Quinnipiac St., Bldg. 40, Wallingford CT 06492
  
  
 ---------------------------------------------------------------
 Warning -- This program may not be used in any manner that
 competes with the business of Gaussian, Inc. or will provide
 assistance to any competitor of Gaussian, Inc.  The licensee
 of this program is prohibited from giving any competitor of
 Gaussian, Inc. access to this program.  By using this program,
 the user acknowledges that Gaussian, Inc. is engaged in the
 business of creating and licensing software in the field of
 computational chemistry and represents and warrants to the
 licensee that it is not a competitor of Gaussian, Inc. and that
 it will not use this program in any manner prohibited above.
 ---------------------------------------------------------------
  

 Cite this work as:
 Gaussian 16, Revision A.03,
 M. J. Frisch, G. W. Trucks, H. B. Schlegel, G. E. Scuseria, 
 M. A. Robb, J. R. Cheeseman, G. Scalmani, V. Barone, 
 G. A. Petersson, H. Nakatsuji, X. Li, M. Caricato, A. V. Marenich, 
 J. Bloino, B. G. Janesko, R. Gomperts, B. Mennucci, H. P. Hratchian, 
 J. V. Ortiz, A. F. Izmaylov, J. L. Sonnenberg, D. Williams-Young, 
 F. Ding, F. Lipparini, F. Egidi, J. Goings, B. Peng, A. Petrone, 
 T. Henderson, D. Ranasinghe, V. G. Zakrzewski, J. Gao, N. Rega, 
 G. Zheng, W. Liang, M. Hada, M. Ehara, K. Toyota, R. Fukuda, 
 J. Hasegawa, M. Ishida, T. Nakajima, Y. Honda, O. Kitao, H. Nakai, 
 T. Vreven, K. Throssell, J. A. Montgomery, Jr., J. E. Peralta, 
 F. Ogliaro, M. J. Bearpark, J. J. Heyd, E. N. Brothers, K. N. Kudin, 
 V. N. Staroverov, T. A. Keith, R. Kobayashi, J. Normand, 
 K. Raghavachari, A. P. Rendell, J. C. Burant, S. S. Iyengar, 
 J. Tomasi, M. Cossi, J. M. Millam, M. Klene, C. Adamo, R. Cammi, 
 J. W. Ochterski, R. L. Martin, K. Morokuma, O. Farkas, 
 J. B. Foresman, and D. J. Fox, Gaussian, Inc., Wallingford CT, 2016.
 
 ******************************************
 Gaussian 16:  ES64L-G16RevA.03 25-Dec-2016
                22-Sep-2023 
 ******************************************
 %nprocshared=2
 Will use up to    2 processors via shared memory.
 %mem=2GB
 ----------------
 # 6-31g(d) wb97x
 ----------------
 1/38=1,172=1/1;
 2/12=2,17=6,18=5,40=1/2;
 3/5=1,6=6,7=1,11=2,25=1,30=1,74=-57/1,2,3;
 4//1;
 5/5=2,38=5/2;
 6/7=2,8=2,9=2,10=2,28=1/1;
 99/5=1,9=1/99;
 --------------------
 tmpdir/M2_ref_77.gjf
 --------------------
 Symbolic Z-matrix:
 Charge =  0 Multiplicity = 1
 C                     8.69479   33.33164   34.69748 
 H                     7.731     32.82662   34.56492 
 H                     9.49316   32.5665   34.77114 
 H                     8.64116   34.01961   35.56134 
 H                     8.86706   33.89626   33.77136 
 
                          Input orientation:                          
 ---------------------------------------------------------------------
 Center     Atomic      Atomic             Coordinates (Angstroms)
 Number     Number       Type             X           Y           Z
 ---------------------------------------------------------------------
      1          6           0        8.694786   33.331639   34.697477
      2          1           0        7.730997   32.826618   34.564923
      3          1           0        9.493161   32.566498   34.771140
      4          1           0        8.641159   34.019610   35.561340
      5          1           0        8.867058   33.896258   33.771357
 ---------------------------------------------------------------------
                    Distance matrix (angstroms):
                    1          2          3          4          5
     1  C    0.000000
     2  H    1.096132   0.000000
     3  H    1.108273   1.793157   0.000000
     4  H    1.105640   1.801242   1.860607   0.000000
     5  H    1.098258   1.750575   1.777592   1.808393   0.000000
 Stoichiometry    CH4
 Framework group  C1[X(CH4)]
 Deg. of freedom     9
 Full point group                 C1      NOp   1
 Largest Abelian subgroup         C1      NOp   1
 Largest concise Abelian subgroup C1      NOp   1
                         Standard orientation:                         
 ---------------------------------------------------------------------
 Center     Atomic      Atomic             Coordinates (Angstroms)
 Number     Number       Type             X           Y           Z
 ---------------------------------------------------------------------
      1          6           0       -0.006415   -0.011177   -0.002380
      2          1           0        0.034105    0.757999   -0.782272
      3          1           0        0.812304   -0.738328   -0.173320
      4          1           0       -1.016308   -0.460187    0.028360
      5          1           0        0.208388    0.507575    0.941510
 ---------------------------------------------------------------------
 Rotational constants (GHZ):         160.7435225         153.4910785         150.6768372
 Standard basis: 6-31G(d) (6D, 7F)
 There are    23 symmetry adapted cartesian basis functions of A   symmetry.
 There are    23 symmetry adapted basis functions of A   symmetry.
    23 basis functions,    44 primitive gaussians,    23 cartesian basis functions
     5 alpha electrons        5 beta electrons
       nuclear repulsion energy        13.2900853400 Hartrees.
 NAtoms=    5 NActive=    5 NUniq=    5 SFac= 1.00D+00 NAtFMM=   60 NAOKFM=F Big=F
 Integral buffers will be    131072 words long.
 Raffenetti 2 integral format.
 Two-electron integral symmetry is turned on.
 One-electron integrals computed using PRISM.
 NBasis=    23 RedAO= T EigKep=  1.84D-02  NBF=    23
 NBsUse=    23 1.00D-06 EigRej= -1.00D+00 NBFU=    23
 ExpMin= 1.61D-01 ExpMax= 3.05D+03 ExpMxC= 4.57D+02 IAcc=3 IRadAn=         5 AccDes= 0.00D+00
 Harris functional with IExCor= 4538 and IRadAn=       5 diagonalized for initial guess.
 HarFok:  IExCor= 4538 AccDes= 0.00D+00 IRadAn=         5 IDoV= 1 UseB2=F ITyADJ=14
 ICtDFT=  3500011 ScaDFX=  1.000000  1.000000  1.000000  1.000000
 FoFCou: FMM=F IPFlag=           0 FMFlag=      100000 FMFlg1=           0
         NFxFlg=           0 DoJE=T BraDBF=F KetDBF=T FulRan=T
         wScrn=  0.000000 ICntrl=       500 IOpCl=  0 I1Cent=   200000004 NGrid=           0
         NMat0=    1 NMatS0=      1 NMatT0=    0 NMatD0=    1 NMtDS0=    0 NMtDT0=    0
 Petite list used in FoFCou.
 Keep R1 ints in memory in canonical form, NReq=1800744.
 Requested convergence on RMS density matrix=1.00D-08 within 128 cycles.
 Requested convergence on MAX density matrix=1.00D-06.
 Requested convergence on             energy=1.00D-06.
 No special actions if energy rises.
 Integral accuracy reduced to 1.0D-05 until final iterations.
 Initial convergence to 1.0D-05 achieved.  Increase integral accuracy.
 SCF Done:  E(RwB97X) =  -40.4984477656     A.U. after   11 cycles
            NFock= 11  Conv=0.23D-08     -V/T= 2.0122

 **********************************************************************

            Population analysis using the SCF density.

 **********************************************************************

 Orbital symmetries:
       Occupied  (A) (A) (A) (A) (A)
       Virtual   (A) (A) (A) (A) (A) (A) (A) (A) (A) (A) (A) (A)
                 (A) (A) (A) (A) (A) (A)
 The electronic state is 1-A.
 Alpha  occ. eigenvalues --  -10.25274  -0.81533  -0.50090  -0.49115  -0.48763
 Alpha virt. eigenvalues --    0.21382   0.27055   0.27251   0.27482   0.63826
 Alpha virt. eigenvalues --    0.64116   0.65079   1.00476   1.01000   1.01657
 Alpha virt. eigenvalues --    1.06301   1.20700   1.75894   1.76073   2.31948
 Alpha virt. eigenvalues --    2.34997   2.36082   4.30099
          Condensed to atoms (all electrons):
               1          2          3          4          5
     1  C    5.127310   0.384148   0.384177   0.385231   0.383630
     2  H    0.384148   0.526172  -0.024475  -0.023911  -0.027882
     3  H    0.384177  -0.024475   0.519964  -0.019014  -0.026262
     4  H    0.385231  -0.023911  -0.019014   0.512772  -0.023068
     5  H    0.383630  -0.027882  -0.026262  -0.023068   0.528635
 Mulliken charges:
               1
     1  C   -0.664497
     2  H    0.165949
     3  H    0.165610
     4  H    0.167990
     5  H    0.164947
 Sum of Mulliken charges =   0.00000
 Mulliken charges with hydrogens summed into heavy atoms:
               1
     1  C    0.000000
 Electronic spatial extent (au):  <R**2>=             35.8021
 Charge=              0.0000 electrons
 Dipole moment (field-independent basis, Debye):
    X=              0.0219    Y=              0.0534    Z=              0.0094  Tot=              0.0585
 Quadrupole moment (field-independent basis, Debye-Ang):
   XX=             -8.0923   YY=             -8.3187   ZZ=             -8.4165
   XY=              0.0093   XZ=             -0.0005   YZ=             -0.0047
 Traceless Quadrupole moment (field-independent basis, Debye-Ang):
   XX=              0.1836   YY=             -0.0429   ZZ=             -0.1407
   XY=              0.0093   XZ=             -0.0005   YZ=             -0.0047
 Octapole moment (field-independent basis, Debye-Ang**2):
  XXX=             -0.3775  YYY=              0.1813  ZZZ=              0.2516  XYY=              0.2381
  XXY=             -0.6967  XXZ=             -0.0273  XZZ=              0.1804  YZZ=              0.6589
  YYZ=             -0.2037  XYZ=              0.1443
 Hexadecapole moment (field-independent basis, Debye-Ang**3):
 XXXX=            -15.2774 YYYY=            -15.7767 ZZZZ=            -15.1551 XXXY=              0.1167
 XXXZ=             -0.1310 YYYX=             -0.1874 YYYZ=             -0.1827 ZZZX=              0.1729
 ZZZY=              0.0638 XXYY=             -4.9390 XXZZ=             -5.5086 YYZZ=             -4.8374
 XXYZ=              0.0992 YYXZ=             -0.0522 ZZXY=              0.1120
 N-N= 1.329008534003D+01 E-N=-1.195547935232D+02  KE= 4.001135217863D+01
 1\1\GINC-NODE67\SP\RwB97X\6-31G(d)\C1H4\YANZ\22-Sep-2023\0\\# 6-31g(d)
  wb97x\\tmpdir/M2_ref_77.gjf\\0,1\C,0,8.694786,33.331639,34.697477\H,0
 ,7.730997,32.826618,34.564923\H,0,9.49316132,32.56649801,34.77113964\H
 ,0,8.64115908,34.01961012,35.56134011\H,0,8.867058,33.896258,33.771357
 \\Version=ES64L-G16RevA.03\State=1-A\HF=-40.4984478\RMSD=2.334e-09\Dip
 ole=-0.0105635,-0.0014219,-0.0203798\Quadrupole=-0.0245416,0.0139639,0
 .0105777,-0.0683739,-0.0204384,0.0990341\PG=C01 [X(C1H4)]\\@


 Everywhere is walking distance if you have the time.
                                    -- Steven Wright
 Job cpu time:       0 days  0 hours  0 minutes  5.1 seconds.
 Elapsed time:       0 days  0 hours  0 minutes  2.6 seconds.
 File lengths (MBytes):  RWF=      6 Int=      0 D2E=      0 Chk=      1 Scr=      1
 Normal termination of Gaussian 16 at Fri Sep 22 16:29:48 2023.
