 Entering Gaussian System, Link 0=g16
 Initial command:
 /share/apps/gaussian/g16/l1.exe "/tmp/55568.mgr/Gau-353461.inp" -scrdir="/tmp/55568.mgr/"
 Entering Link 1 = /share/apps/gaussian/g16/l1.exe PID=    353462.
  
 Copyright (c) 1988,1990,1992,1993,1995,1998,2003,2009,2016,
            Gaussian, Inc.  All Rights Reserved.
  
 This is part of the Gaussian(R) 16 program.  It is based on
 the Gaussian(R) 09 system (copyright 2009, Gaussian, Inc.),
 the Gaussian(R) 03 system (copyright 2003, Gaussian, Inc.),
 the Gaussian(R) 98 system (copyright 1998, Gaussian, Inc.),
 the Gaussian(R) 94 system (copyright 1995, Gaussian, Inc.),
 the Gaussian 92(TM) system (copyright 1992, Gaussian, Inc.),
 the Gaussian 90(TM) system (copyright 1990, Gaussian, Inc.),
 the Gaussian 88(TM) system (copyright 1988, Gaussian, Inc.),
 the Gaussian 86(TM) system (copyright 1986, Carnegie Mellon
 University), and the Gaussian 82(TM) system (copyright 1983,
 Carnegie Mellon University). Gaussian is a federally registered
 trademark of Gaussian, Inc.
  
 This software contains proprietary and confidential information,
 including trade secrets, belonging to Gaussian, Inc.
  
 This software is provided under written license and may be
 used, copied, transmitted, or stored only in accord with that
 written license.
  
 The following legend is applicable only to US Government
 contracts under FAR:
  
                    RESTRICTED RIGHTS LEGEND
  
 Use, reproduction and disclosure by the US Government is
 subject to restrictions as set forth in subparagraphs (a)
 and (c) of the Commercial Computer Software - Restricted
 Rights clause in FAR 52.227-19.
  
 Gaussian, Inc.
 340 Quinnipiac St., Bldg. 40, Wallingford CT 06492
  
  
 ---------------------------------------------------------------
 Warning -- This program may not be used in any manner that
 competes with the business of Gaussian, Inc. or will provide
 assistance to any competitor of Gaussian, Inc.  The licensee
 of this program is prohibited from giving any competitor of
 Gaussian, Inc. access to this program.  By using this program,
 the user acknowledges that Gaussian, Inc. is engaged in the
 business of creating and licensing software in the field of
 computational chemistry and represents and warrants to the
 licensee that it is not a competitor of Gaussian, Inc. and that
 it will not use this program in any manner prohibited above.
 ---------------------------------------------------------------
  

 Cite this work as:
 Gaussian 16, Revision A.03,
 M. J. Frisch, G. W. Trucks, H. B. Schlegel, G. E. Scuseria, 
 M. A. Robb, J. R. Cheeseman, G. Scalmani, V. Barone, 
 G. A. Petersson, H. Nakatsuji, X. Li, M. Caricato, A. V. Marenich, 
 J. Bloino, B. G. Janesko, R. Gomperts, B. Mennucci, H. P. Hratchian, 
 J. V. Ortiz, A. F. Izmaylov, J. L. Sonnenberg, D. Williams-Young, 
 F. Ding, F. Lipparini, F. Egidi, J. Goings, B. Peng, A. Petrone, 
 T. Henderson, D. Ranasinghe, V. G. Zakrzewski, J. Gao, N. Rega, 
 G. Zheng, W. Liang, M. Hada, M. Ehara, K. Toyota, R. Fukuda, 
 J. Hasegawa, M. Ishida, T. Nakajima, Y. Honda, O. Kitao, H. Nakai, 
 T. Vreven, K. Throssell, J. A. Montgomery, Jr., J. E. Peralta, 
 F. Ogliaro, M. J. Bearpark, J. J. Heyd, E. N. Brothers, K. N. Kudin, 
 V. N. Staroverov, T. A. Keith, R. Kobayashi, J. Normand, 
 K. Raghavachari, A. P. Rendell, J. C. Burant, S. S. Iyengar, 
 J. Tomasi, M. Cossi, J. M. Millam, M. Klene, C. Adamo, R. Cammi, 
 J. W. Ochterski, R. L. Martin, K. Morokuma, O. Farkas, 
 J. B. Foresman, and D. J. Fox, Gaussian, Inc., Wallingford CT, 2016.
 
 ******************************************
 Gaussian 16:  ES64L-G16RevA.03 25-Dec-2016
                22-Sep-2023 
 ******************************************
 %nprocshared=2
 Will use up to    2 processors via shared memory.
 %mem=2GB
 ----------------
 # 6-31g(d) wb97x
 ----------------
 1/38=1,172=1/1;
 2/12=2,17=6,18=5,40=1/2;
 3/5=1,6=6,7=1,11=2,25=1,30=1,74=-57/1,2,3;
 4//1;
 5/5=2,38=5/2;
 6/7=2,8=2,9=2,10=2,28=1/1;
 99/5=1,9=1/99;
 --------------------
 tmpdir/M2_ref_72.gjf
 --------------------
 Symbolic Z-matrix:
 Charge =  0 Multiplicity = 1
 O                     9.66123   31.431    35.94876 
 C                     9.79769   32.27465   34.79924 
 H                     9.74144   31.63216   33.9002 
 H                     8.92039   30.79356   35.93708 
 H                     8.99931   33.03979   34.72557 
 H                     10.81026   32.71239   34.85388 
 
                          Input orientation:                          
 ---------------------------------------------------------------------
 Center     Atomic      Atomic             Coordinates (Angstroms)
 Number     Number       Type             X           Y           Z
 ---------------------------------------------------------------------
      1          8           0        9.661228   31.431000   35.948758
      2          6           0        9.797688   32.274648   34.799237
      3          1           0        9.741440   31.632164   33.900198
      4          1           0        8.920392   30.793556   35.937082
      5          1           0        8.999313   33.039789   34.725574
      6          1           0       10.810260   32.712393   34.853880
 ---------------------------------------------------------------------
                    Distance matrix (angstroms):
                    1          2          3          4          5
     1  O    0.000000
     2  C    1.432397   0.000000
     3  H    2.059975   1.106445   0.000000
     4  H    0.977399   2.063485   2.350804   0.000000
     5  H    2.126620   1.108273   1.792598   2.553339   0.000000
     6  H    2.039853   1.104495   1.794096   2.902906   1.844772
                    6
     6  H    0.000000
 Stoichiometry    CH4O
 Framework group  C1[X(CH4O)]
 Deg. of freedom    12
 Full point group                 C1      NOp   1
 Largest Abelian subgroup         C1      NOp   1
 Largest concise Abelian subgroup C1      NOp   1
                         Standard orientation:                         
 ---------------------------------------------------------------------
 Center     Atomic      Atomic             Coordinates (Angstroms)
 Number     Number       Type             X           Y           Z
 ---------------------------------------------------------------------
      1          8           0        0.743449    0.122580    0.016695
      2          6           0       -0.681861   -0.019261    0.005022
      3          1           0       -0.949794   -0.667009   -0.851047
      4          1           0        1.264809   -0.700287   -0.063199
      5          1           0       -1.078695   -0.487398    0.927866
      6          1           0       -1.092745    0.989620   -0.177306
 ---------------------------------------------------------------------
 Rotational constants (GHZ):         126.5242536          24.2009444          23.3937785
 Standard basis: 6-31G(d) (6D, 7F)
 There are    38 symmetry adapted cartesian basis functions of A   symmetry.
 There are    38 symmetry adapted basis functions of A   symmetry.
    38 basis functions,    72 primitive gaussians,    38 cartesian basis functions
     9 alpha electrons        9 beta electrons
       nuclear repulsion energy        39.8247875328 Hartrees.
 NAtoms=    6 NActive=    6 NUniq=    6 SFac= 1.00D+00 NAtFMM=   60 NAOKFM=F Big=F
 Integral buffers will be    131072 words long.
 Raffenetti 2 integral format.
 Two-electron integral symmetry is turned on.
 One-electron integrals computed using PRISM.
 NBasis=    38 RedAO= T EigKep=  9.92D-03  NBF=    38
 NBsUse=    38 1.00D-06 EigRej= -1.00D+00 NBFU=    38
 ExpMin= 1.61D-01 ExpMax= 5.48D+03 ExpMxC= 8.25D+02 IAcc=3 IRadAn=         5 AccDes= 0.00D+00
 Harris functional with IExCor= 4538 and IRadAn=       5 diagonalized for initial guess.
 HarFok:  IExCor= 4538 AccDes= 0.00D+00 IRadAn=         5 IDoV= 1 UseB2=F ITyADJ=14
 ICtDFT=  3500011 ScaDFX=  1.000000  1.000000  1.000000  1.000000
 FoFCou: FMM=F IPFlag=           0 FMFlag=      100000 FMFlg1=           0
         NFxFlg=           0 DoJE=T BraDBF=F KetDBF=T FulRan=T
         wScrn=  0.000000 ICntrl=       500 IOpCl=  0 I1Cent=   200000004 NGrid=           0
         NMat0=    1 NMatS0=      1 NMatT0=    0 NMatD0=    1 NMtDS0=    0 NMtDT0=    0
 Petite list used in FoFCou.
 Keep R1 ints in memory in canonical form, NReq=2276072.
 Requested convergence on RMS density matrix=1.00D-08 within 128 cycles.
 Requested convergence on MAX density matrix=1.00D-06.
 Requested convergence on             energy=1.00D-06.
 No special actions if energy rises.
 Integral accuracy reduced to 1.0D-05 until final iterations.
 Initial convergence to 1.0D-05 achieved.  Increase integral accuracy.
 SCF Done:  E(RwB97X) =  -115.675990424     A.U. after   12 cycles
            NFock= 12  Conv=0.97D-08     -V/T= 2.0097

 **********************************************************************

            Population analysis using the SCF density.

 **********************************************************************

 Orbital symmetries:
       Occupied  (A) (A) (A) (A) (A) (A) (A) (A) (A)
       Virtual   (A) (A) (A) (A) (A) (A) (A) (A) (A) (A) (A) (A)
                 (A) (A) (A) (A) (A) (A) (A) (A) (A) (A) (A) (A)
                 (A) (A) (A) (A) (A)
 The electronic state is 1-A.
 Alpha  occ. eigenvalues --  -19.20095 -10.31155  -1.12179  -0.80232  -0.60751
 Alpha  occ. eigenvalues --   -0.54126  -0.52810  -0.41948  -0.36429
 Alpha virt. eigenvalues --    0.17582   0.22665   0.26605   0.27356   0.30677
 Alpha virt. eigenvalues --    0.64332   0.66938   0.68895   0.90403   0.96314
 Alpha virt. eigenvalues --    0.98173   1.01666   1.06961   1.09538   1.12164
 Alpha virt. eigenvalues --    1.24208   1.57039   1.60398   1.72501   1.87180
 Alpha virt. eigenvalues --    2.12436   2.18219   2.28244   2.39389   2.48547
 Alpha virt. eigenvalues --    2.60953   2.89460   3.82367   4.34434
          Condensed to atoms (all electrons):
               1          2          3          4          5          6
     1  O    8.259706   0.249064  -0.037480   0.247212  -0.036162  -0.036719
     2  C    0.249064   4.844097   0.378792  -0.022878   0.372979   0.392214
     3  H   -0.037480   0.378792   0.599336  -0.005670  -0.043136  -0.030188
     4  H    0.247212  -0.022878  -0.005670   0.375541  -0.001648   0.004796
     5  H   -0.036162   0.372979  -0.043136  -0.001648   0.595730  -0.031639
     6  H   -0.036719   0.392214  -0.030188   0.004796  -0.031639   0.526515
 Mulliken charges:
               1
     1  O   -0.645622
     2  C   -0.214268
     3  H    0.138346
     4  H    0.402647
     5  H    0.143876
     6  H    0.175021
 Sum of Mulliken charges =  -0.00000
 Mulliken charges with hydrogens summed into heavy atoms:
               1
     1  O   -0.242974
     2  C    0.242974
 Electronic spatial extent (au):  <R**2>=             85.0232
 Charge=             -0.0000 electrons
 Dipole moment (field-independent basis, Debye):
    X=             -0.6620    Y=             -1.5346    Z=             -0.1998  Tot=              1.6832
 Quadrupole moment (field-independent basis, Debye-Ang):
   XX=            -11.9584   YY=            -12.1327   ZZ=            -13.5679
   XY=             -2.3952   XZ=             -0.2253   YZ=              0.0017
 Traceless Quadrupole moment (field-independent basis, Debye-Ang):
   XX=              0.5946   YY=              0.4203   ZZ=             -1.0149
   XY=             -2.3952   XZ=             -0.2253   YZ=              0.0017
 Octapole moment (field-independent basis, Debye-Ang**2):
  XXX=              5.8997  YYY=             -0.3738  ZZZ=              0.0342  XYY=              1.6709
  XXY=             -2.5564  XXZ=             -0.2580  XZZ=              0.5751  YZZ=             -0.6065
  YYZ=             -0.2882  XYZ=              0.2991
 Hexadecapole moment (field-independent basis, Debye-Ang**3):
 XXXX=            -59.0165 YYYY=            -19.5216 ZZZZ=            -19.0841 XXXY=             -4.5727
 XXXZ=             -0.4576 YYYX=             -2.8319 YYYZ=             -0.0490 ZZZX=             -0.2786
 ZZZY=             -0.0009 XXYY=            -12.0702 XXZZ=            -13.8842 YYZZ=             -6.4587
 XXYZ=             -0.1080 YYXZ=              0.1222 ZZXY=              0.0583
 N-N= 3.982478753278D+01 E-N=-3.506742805539D+02  KE= 1.145665787665D+02
 1\1\GINC-NODE67\SP\RwB97X\6-31G(d)\C1H4O1\YANZ\22-Sep-2023\0\\# 6-31g(
 d) wb97x\\tmpdir/M2_ref_72.gjf\\0,1\O,0,9.661228,31.431,35.948758\C,0,
 9.797688,32.274648,34.799237\H,0,9.74144,31.632164,33.900198\H,0,8.920
 39186,30.79355608,35.93708156\H,0,8.99931268,33.03978899,34.72557436\H
 ,0,10.81026046,32.71239272,34.85388026\\Version=ES64L-G16RevA.03\State
 =1-A\HF=-115.6759904\RMSD=9.667e-09\Dipole=-0.4207272,-0.0779743,-0.50
 54245\Quadrupole=0.5259201,0.6569531,-1.1828732,1.408985,-0.6708902,-0
 .3761075\PG=C01 [X(C1H4O1)]\\@


 LIFE CAN ONLY BE UNDERSTOOD BACKWARD, BUT MUST
 BE LIVED FORWARD. -- KIRKEGAARD
 Job cpu time:       0 days  0 hours  0 minutes  8.2 seconds.
 Elapsed time:       0 days  0 hours  0 minutes  4.1 seconds.
 File lengths (MBytes):  RWF=      6 Int=      0 D2E=      0 Chk=      1 Scr=      1
 Normal termination of Gaussian 16 at Fri Sep 22 16:29:34 2023.
