 Entering Gaussian System, Link 0=g16
 Initial command:
 /share/apps/gaussian/g16/l1.exe "/tmp/55568.mgr/Gau-353261.inp" -scrdir="/tmp/55568.mgr/"
 Entering Link 1 = /share/apps/gaussian/g16/l1.exe PID=    353262.
  
 Copyright (c) 1988,1990,1992,1993,1995,1998,2003,2009,2016,
            Gaussian, Inc.  All Rights Reserved.
  
 This is part of the Gaussian(R) 16 program.  It is based on
 the Gaussian(R) 09 system (copyright 2009, Gaussian, Inc.),
 the Gaussian(R) 03 system (copyright 2003, Gaussian, Inc.),
 the Gaussian(R) 98 system (copyright 1998, Gaussian, Inc.),
 the Gaussian(R) 94 system (copyright 1995, Gaussian, Inc.),
 the Gaussian 92(TM) system (copyright 1992, Gaussian, Inc.),
 the Gaussian 90(TM) system (copyright 1990, Gaussian, Inc.),
 the Gaussian 88(TM) system (copyright 1988, Gaussian, Inc.),
 the Gaussian 86(TM) system (copyright 1986, Carnegie Mellon
 University), and the Gaussian 82(TM) system (copyright 1983,
 Carnegie Mellon University). Gaussian is a federally registered
 trademark of Gaussian, Inc.
  
 This software contains proprietary and confidential information,
 including trade secrets, belonging to Gaussian, Inc.
  
 This software is provided under written license and may be
 used, copied, transmitted, or stored only in accord with that
 written license.
  
 The following legend is applicable only to US Government
 contracts under FAR:
  
                    RESTRICTED RIGHTS LEGEND
  
 Use, reproduction and disclosure by the US Government is
 subject to restrictions as set forth in subparagraphs (a)
 and (c) of the Commercial Computer Software - Restricted
 Rights clause in FAR 52.227-19.
  
 Gaussian, Inc.
 340 Quinnipiac St., Bldg. 40, Wallingford CT 06492
  
  
 ---------------------------------------------------------------
 Warning -- This program may not be used in any manner that
 competes with the business of Gaussian, Inc. or will provide
 assistance to any competitor of Gaussian, Inc.  The licensee
 of this program is prohibited from giving any competitor of
 Gaussian, Inc. access to this program.  By using this program,
 the user acknowledges that Gaussian, Inc. is engaged in the
 business of creating and licensing software in the field of
 computational chemistry and represents and warrants to the
 licensee that it is not a competitor of Gaussian, Inc. and that
 it will not use this program in any manner prohibited above.
 ---------------------------------------------------------------
  

 Cite this work as:
 Gaussian 16, Revision A.03,
 M. J. Frisch, G. W. Trucks, H. B. Schlegel, G. E. Scuseria, 
 M. A. Robb, J. R. Cheeseman, G. Scalmani, V. Barone, 
 G. A. Petersson, H. Nakatsuji, X. Li, M. Caricato, A. V. Marenich, 
 J. Bloino, B. G. Janesko, R. Gomperts, B. Mennucci, H. P. Hratchian, 
 J. V. Ortiz, A. F. Izmaylov, J. L. Sonnenberg, D. Williams-Young, 
 F. Ding, F. Lipparini, F. Egidi, J. Goings, B. Peng, A. Petrone, 
 T. Henderson, D. Ranasinghe, V. G. Zakrzewski, J. Gao, N. Rega, 
 G. Zheng, W. Liang, M. Hada, M. Ehara, K. Toyota, R. Fukuda, 
 J. Hasegawa, M. Ishida, T. Nakajima, Y. Honda, O. Kitao, H. Nakai, 
 T. Vreven, K. Throssell, J. A. Montgomery, Jr., J. E. Peralta, 
 F. Ogliaro, M. J. Bearpark, J. J. Heyd, E. N. Brothers, K. N. Kudin, 
 V. N. Staroverov, T. A. Keith, R. Kobayashi, J. Normand, 
 K. Raghavachari, A. P. Rendell, J. C. Burant, S. S. Iyengar, 
 J. Tomasi, M. Cossi, J. M. Millam, M. Klene, C. Adamo, R. Cammi, 
 J. W. Ochterski, R. L. Martin, K. Morokuma, O. Farkas, 
 J. B. Foresman, and D. J. Fox, Gaussian, Inc., Wallingford CT, 2016.
 
 ******************************************
 Gaussian 16:  ES64L-G16RevA.03 25-Dec-2016
                22-Sep-2023 
 ******************************************
 %nprocshared=2
 Will use up to    2 processors via shared memory.
 %mem=2GB
 ----------------
 # 6-31g(d) wb97x
 ----------------
 1/38=1,172=1/1;
 2/12=2,17=6,18=5,40=1/2;
 3/5=1,6=6,7=1,11=2,25=1,30=1,74=-57/1,2,3;
 4//1;
 5/5=2,38=5/2;
 6/7=2,8=2,9=2,10=2,28=1/1;
 99/5=1,9=1/99;
 --------------------
 tmpdir/M2_ref_54.gjf
 --------------------
 Symbolic Z-matrix:
 Charge =  0 Multiplicity = 1
 C                     8.58256   30.50288   35.93176 
 H                     8.38576   30.23446   34.87678 
 H                     8.98524   29.58364   36.43296 
 H                     7.67513   30.85302   36.41454 
 H                     9.46824   31.26495   35.94572 
 
                          Input orientation:                          
 ---------------------------------------------------------------------
 Center     Atomic      Atomic             Coordinates (Angstroms)
 Number     Number       Type             X           Y           Z
 ---------------------------------------------------------------------
      1          6           0        8.582564   30.502876   35.931757
      2          1           0        8.385764   30.234457   34.876776
      3          1           0        8.985237   29.583640   36.432956
      4          1           0        7.675128   30.853015   36.414543
      5          1           0        9.468244   31.264949   35.945716
 ---------------------------------------------------------------------
                    Distance matrix (angstroms):
                    1          2          3          4          5
     1  C    0.000000
     2  H    1.106239   0.000000
     3  H    1.121758   1.790147   0.000000
     4  H    1.085873   1.803426   1.824291   0.000000
     5  H    1.168495   1.837474   1.815902   1.898619   0.000000
 Stoichiometry    CH4
 Framework group  C1[X(CH4)]
 Deg. of freedom     9
 Full point group                 C1      NOp   1
 Largest Abelian subgroup         C1      NOp   1
 Largest concise Abelian subgroup C1      NOp   1
                         Standard orientation:                         
 ---------------------------------------------------------------------
 Center     Atomic      Atomic             Coordinates (Angstroms)
 Number     Number       Type             X           Y           Z
 ---------------------------------------------------------------------
      1          6           0       -0.016803   -0.012024   -0.001234
      2          1           0       -0.193855    0.504110    0.961066
      3          1           0        0.153702    0.784489   -0.772491
      4          1           0       -0.862860   -0.641268   -0.260771
      5          1           0        1.003831   -0.575187    0.079603
 ---------------------------------------------------------------------
 Rotational constants (GHZ):         156.3256450         147.0156912         146.2322451
 Standard basis: 6-31G(d) (6D, 7F)
 There are    23 symmetry adapted cartesian basis functions of A   symmetry.
 There are    23 symmetry adapted basis functions of A   symmetry.
    23 basis functions,    44 primitive gaussians,    23 cartesian basis functions
     5 alpha electrons        5 beta electrons
       nuclear repulsion energy        13.0790043663 Hartrees.
 NAtoms=    5 NActive=    5 NUniq=    5 SFac= 1.00D+00 NAtFMM=   60 NAOKFM=F Big=F
 Integral buffers will be    131072 words long.
 Raffenetti 2 integral format.
 Two-electron integral symmetry is turned on.
 One-electron integrals computed using PRISM.
 NBasis=    23 RedAO= T EigKep=  1.95D-02  NBF=    23
 NBsUse=    23 1.00D-06 EigRej= -1.00D+00 NBFU=    23
 ExpMin= 1.61D-01 ExpMax= 3.05D+03 ExpMxC= 4.57D+02 IAcc=3 IRadAn=         5 AccDes= 0.00D+00
 Harris functional with IExCor= 4538 and IRadAn=       5 diagonalized for initial guess.
 HarFok:  IExCor= 4538 AccDes= 0.00D+00 IRadAn=         5 IDoV= 1 UseB2=F ITyADJ=14
 ICtDFT=  3500011 ScaDFX=  1.000000  1.000000  1.000000  1.000000
 FoFCou: FMM=F IPFlag=           0 FMFlag=      100000 FMFlg1=           0
         NFxFlg=           0 DoJE=T BraDBF=F KetDBF=T FulRan=T
         wScrn=  0.000000 ICntrl=       500 IOpCl=  0 I1Cent=   200000004 NGrid=           0
         NMat0=    1 NMatS0=      1 NMatT0=    0 NMatD0=    1 NMtDS0=    0 NMtDT0=    0
 Petite list used in FoFCou.
 Keep R1 ints in memory in canonical form, NReq=1800744.
 Requested convergence on RMS density matrix=1.00D-08 within 128 cycles.
 Requested convergence on MAX density matrix=1.00D-06.
 Requested convergence on             energy=1.00D-06.
 No special actions if energy rises.
 Integral accuracy reduced to 1.0D-05 until final iterations.
 Initial convergence to 1.0D-05 achieved.  Increase integral accuracy.
 SCF Done:  E(RwB97X) =  -40.4946733854     A.U. after   11 cycles
            NFock= 11  Conv=0.21D-08     -V/T= 2.0142

 **********************************************************************

            Population analysis using the SCF density.

 **********************************************************************

 Orbital symmetries:
       Occupied  (A) (A) (A) (A) (A)
       Virtual   (A) (A) (A) (A) (A) (A) (A) (A) (A) (A) (A) (A)
                 (A) (A) (A) (A) (A) (A)
 The electronic state is 1-A.
 Alpha  occ. eigenvalues --  -10.26080  -0.81034  -0.50473  -0.48859  -0.47702
 Alpha virt. eigenvalues --    0.20775   0.25463   0.26831   0.27762   0.64016
 Alpha virt. eigenvalues --    0.64533   0.66116   0.96903   0.99920   1.02175
 Alpha virt. eigenvalues --    1.04143   1.20197   1.76232   1.76490   2.27640
 Alpha virt. eigenvalues --    2.33265   2.34873   4.28869
          Condensed to atoms (all electrons):
               1          2          3          4          5
     1  C    5.131239   0.382000   0.379811   0.386689   0.375659
     2  H    0.382000   0.526053  -0.026158  -0.024389  -0.024047
     3  H    0.379811  -0.026158   0.534346  -0.022663  -0.026962
     4  H    0.386689  -0.024389  -0.022663   0.502232  -0.018071
     5  H    0.375659  -0.024047  -0.026962  -0.018071   0.542391
 Mulliken charges:
               1
     1  C   -0.655398
     2  H    0.166540
     3  H    0.161626
     4  H    0.176202
     5  H    0.151030
 Sum of Mulliken charges =  -0.00000
 Mulliken charges with hydrogens summed into heavy atoms:
               1
     1  C   -0.000000
 Electronic spatial extent (au):  <R**2>=             36.5051
 Charge=             -0.0000 electrons
 Dipole moment (field-independent basis, Debye):
    X=             -0.0158    Y=              0.0560    Z=              0.0051  Tot=              0.0584
 Quadrupole moment (field-independent basis, Debye-Ang):
   XX=             -8.1443   YY=             -8.4093   ZZ=             -8.4237
   XY=              0.1103   XZ=              0.0115   YZ=              0.0446
 Traceless Quadrupole moment (field-independent basis, Debye-Ang):
   XX=              0.1815   YY=             -0.0835   ZZ=             -0.0979
   XY=              0.1103   XZ=              0.0115   YZ=              0.0446
 Octapole moment (field-independent basis, Debye-Ang**2):
  XXX=              0.0371  YYY=              0.2363  ZZZ=              0.3244  XYY=             -0.0910
  XXY=             -0.7527  XXZ=             -0.0933  XZZ=             -0.1602  YZZ=              0.6669
  YYZ=             -0.2153  XYZ=             -0.2911
 Hexadecapole moment (field-independent basis, Debye-Ang**3):
 XXXX=            -15.9175 YYYY=            -16.1836 ZZZZ=            -15.5160 XXXY=              0.0449
 XXXZ=              0.2943 YYYX=              0.3369 YYYZ=             -0.1287 ZZZX=             -0.2317
 ZZZY=              0.2053 XXYY=             -5.0454 XXZZ=             -5.6481 YYZZ=             -4.9318
 XXYZ=              0.1222 YYXZ=              0.0015 ZZXY=              0.0986
 N-N= 1.307900436630D+01 E-N=-1.190645178066D+02  KE= 3.992582560979D+01
 1\1\GINC-NODE67\SP\RwB97X\6-31G(d)\C1H4\YANZ\22-Sep-2023\0\\# 6-31g(d)
  wb97x\\tmpdir/M2_ref_54.gjf\\0,1\C,0,8.582564,30.502876,35.931757\H,0
 ,8.385764,30.234457,34.876776\H,0,8.98523717,29.58363995,36.43295612\H
 ,0,7.67512802,30.85301531,36.41454336\H,0,9.46824422,31.26494934,35.94
 571635\\Version=ES64L-G16RevA.03\State=1-A\HF=-40.4946734\RMSD=2.123e-
 09\Dipole=-0.0023539,-0.0215043,-0.0077319\Quadrupole=0.1507682,-0.101
 8665,-0.0489017,-0.0251055,-0.0501694,0.0259296\PG=C01 [X(C1H4)]\\@


 A SOLDIER'S LIFE IS A LIFE OF HONOR, BUT A DOG WOULD NOT LEAD IT.
 -- PRINCE RUPERT, FOUNDER OF THE HUDSON'S BAY COMPANY
 Job cpu time:       0 days  0 hours  0 minutes  5.4 seconds.
 Elapsed time:       0 days  0 hours  0 minutes  2.7 seconds.
 File lengths (MBytes):  RWF=      6 Int=      0 D2E=      0 Chk=      1 Scr=      1
 Normal termination of Gaussian 16 at Fri Sep 22 16:29:25 2023.
