 Entering Gaussian System, Link 0=g16
 Initial command:
 /share/apps/gaussian/g16/l1.exe "/tmp/55568.mgr/Gau-353407.inp" -scrdir="/tmp/55568.mgr/"
 Entering Link 1 = /share/apps/gaussian/g16/l1.exe PID=    353408.
  
 Copyright (c) 1988,1990,1992,1993,1995,1998,2003,2009,2016,
            Gaussian, Inc.  All Rights Reserved.
  
 This is part of the Gaussian(R) 16 program.  It is based on
 the Gaussian(R) 09 system (copyright 2009, Gaussian, Inc.),
 the Gaussian(R) 03 system (copyright 2003, Gaussian, Inc.),
 the Gaussian(R) 98 system (copyright 1998, Gaussian, Inc.),
 the Gaussian(R) 94 system (copyright 1995, Gaussian, Inc.),
 the Gaussian 92(TM) system (copyright 1992, Gaussian, Inc.),
 the Gaussian 90(TM) system (copyright 1990, Gaussian, Inc.),
 the Gaussian 88(TM) system (copyright 1988, Gaussian, Inc.),
 the Gaussian 86(TM) system (copyright 1986, Carnegie Mellon
 University), and the Gaussian 82(TM) system (copyright 1983,
 Carnegie Mellon University). Gaussian is a federally registered
 trademark of Gaussian, Inc.
  
 This software contains proprietary and confidential information,
 including trade secrets, belonging to Gaussian, Inc.
  
 This software is provided under written license and may be
 used, copied, transmitted, or stored only in accord with that
 written license.
  
 The following legend is applicable only to US Government
 contracts under FAR:
  
                    RESTRICTED RIGHTS LEGEND
  
 Use, reproduction and disclosure by the US Government is
 subject to restrictions as set forth in subparagraphs (a)
 and (c) of the Commercial Computer Software - Restricted
 Rights clause in FAR 52.227-19.
  
 Gaussian, Inc.
 340 Quinnipiac St., Bldg. 40, Wallingford CT 06492
  
  
 ---------------------------------------------------------------
 Warning -- This program may not be used in any manner that
 competes with the business of Gaussian, Inc. or will provide
 assistance to any competitor of Gaussian, Inc.  The licensee
 of this program is prohibited from giving any competitor of
 Gaussian, Inc. access to this program.  By using this program,
 the user acknowledges that Gaussian, Inc. is engaged in the
 business of creating and licensing software in the field of
 computational chemistry and represents and warrants to the
 licensee that it is not a competitor of Gaussian, Inc. and that
 it will not use this program in any manner prohibited above.
 ---------------------------------------------------------------
  

 Cite this work as:
 Gaussian 16, Revision A.03,
 M. J. Frisch, G. W. Trucks, H. B. Schlegel, G. E. Scuseria, 
 M. A. Robb, J. R. Cheeseman, G. Scalmani, V. Barone, 
 G. A. Petersson, H. Nakatsuji, X. Li, M. Caricato, A. V. Marenich, 
 J. Bloino, B. G. Janesko, R. Gomperts, B. Mennucci, H. P. Hratchian, 
 J. V. Ortiz, A. F. Izmaylov, J. L. Sonnenberg, D. Williams-Young, 
 F. Ding, F. Lipparini, F. Egidi, J. Goings, B. Peng, A. Petrone, 
 T. Henderson, D. Ranasinghe, V. G. Zakrzewski, J. Gao, N. Rega, 
 G. Zheng, W. Liang, M. Hada, M. Ehara, K. Toyota, R. Fukuda, 
 J. Hasegawa, M. Ishida, T. Nakajima, Y. Honda, O. Kitao, H. Nakai, 
 T. Vreven, K. Throssell, J. A. Montgomery, Jr., J. E. Peralta, 
 F. Ogliaro, M. J. Bearpark, J. J. Heyd, E. N. Brothers, K. N. Kudin, 
 V. N. Staroverov, T. A. Keith, R. Kobayashi, J. Normand, 
 K. Raghavachari, A. P. Rendell, J. C. Burant, S. S. Iyengar, 
 J. Tomasi, M. Cossi, J. M. Millam, M. Klene, C. Adamo, R. Cammi, 
 J. W. Ochterski, R. L. Martin, K. Morokuma, O. Farkas, 
 J. B. Foresman, and D. J. Fox, Gaussian, Inc., Wallingford CT, 2016.
 
 ******************************************
 Gaussian 16:  ES64L-G16RevA.03 25-Dec-2016
                22-Sep-2023 
 ******************************************
 %nprocshared=2
 Will use up to    2 processors via shared memory.
 %mem=2GB
 ----------------
 # 6-31g(d) wb97x
 ----------------
 1/38=1,172=1/1;
 2/12=2,17=6,18=5,40=1/2;
 3/5=1,6=6,7=1,11=2,25=1,30=1,74=-57/1,2,3;
 4//1;
 5/5=2,38=5/2;
 6/7=2,8=2,9=2,10=2,28=1/1;
 99/5=1,9=1/99;
 --------------------
 tmpdir/M2_ref_58.gjf
 --------------------
 Symbolic Z-matrix:
 Charge =  0 Multiplicity = 1
 C                     7.329     30.98657   36.59869 
 C                     8.58256   30.50288   35.93176 
 O                     9.66123   31.431    35.94876 
 O                     6.6253    30.29409   37.22999 
 H                     7.01408   32.01936   36.47357 
 H                     8.98524   29.58364   36.43296 
 H                     8.38576   30.23446   34.87678 
 H                     9.75495   32.01043   35.15926 
 
                          Input orientation:                          
 ---------------------------------------------------------------------
 Center     Atomic      Atomic             Coordinates (Angstroms)
 Number     Number       Type             X           Y           Z
 ---------------------------------------------------------------------
      1          6           0        7.329002   30.986570   36.598694
      2          6           0        8.582564   30.502876   35.931757
      3          8           0        9.661228   31.431000   35.948758
      4          8           0        6.625299   30.294091   37.229989
      5          1           0        7.014081   32.019358   36.473568
      6          1           0        8.985237   29.583640   36.432956
      7          1           0        8.385764   30.234457   34.876776
      8          1           0        9.754950   32.010425   35.159257
 ---------------------------------------------------------------------
                    Distance matrix (angstroms):
                    1          2          3          4          5
     1  C    0.000000
     2  C    1.500061   0.000000
     3  O    2.461547   1.423102   0.000000
     4  O    1.171862   2.357941   3.485826   0.000000
     5  H    1.086960   2.247980   2.762060   1.923505   0.000000
     6  H    2.176878   1.121758   2.025870   2.590234   3.133661
     7  H    2.155788   1.106239   2.051260   2.939457   2.759915
     8  H    3.000914   2.060085   0.983783   4.126555   3.039713
                    6          7          8
     6  H    0.000000
     7  H    1.790147   0.000000
     8  H    2.846762   2.260205   0.000000
 Stoichiometry    C2H4O2
 Framework group  C1[X(C2H4O2)]
 Deg. of freedom    18
 Full point group                 C1      NOp   1
 Largest Abelian subgroup         C1      NOp   1
 Largest concise Abelian subgroup C1      NOp   1
                         Standard orientation:                         
 ---------------------------------------------------------------------
 Center     Atomic      Atomic             Coordinates (Angstroms)
 Number     Number       Type             X           Y           Z
 ---------------------------------------------------------------------
      1          6           0       -0.753804   -0.350860    0.134623
      2          6           0        0.496745    0.476668    0.173446
      3          8           0        1.670493   -0.198770   -0.263955
      4          8           0       -1.802832    0.078362   -0.162983
      5          1           0       -0.719659   -1.396218    0.430501
      6          1           0        0.415180    1.374582   -0.493966
      7          1           0        0.685729    0.852096    1.196726
      8          1           0        2.219815   -0.622049    0.433834
 ---------------------------------------------------------------------
 Rotational constants (GHZ):          35.9828286           4.3368844           4.1285542
 Standard basis: 6-31G(d) (6D, 7F)
 There are    68 symmetry adapted cartesian basis functions of A   symmetry.
 There are    68 symmetry adapted basis functions of A   symmetry.
    68 basis functions,   128 primitive gaussians,    68 cartesian basis functions
    16 alpha electrons       16 beta electrons
       nuclear repulsion energy       116.1364659956 Hartrees.
 NAtoms=    8 NActive=    8 NUniq=    8 SFac= 1.00D+00 NAtFMM=   60 NAOKFM=F Big=F
 Integral buffers will be    131072 words long.
 Raffenetti 2 integral format.
 Two-electron integral symmetry is turned on.
 One-electron integrals computed using PRISM.
 NBasis=    68 RedAO= T EigKep=  4.49D-03  NBF=    68
 NBsUse=    68 1.00D-06 EigRej= -1.00D+00 NBFU=    68
 ExpMin= 1.61D-01 ExpMax= 5.48D+03 ExpMxC= 8.25D+02 IAcc=3 IRadAn=         5 AccDes= 0.00D+00
 Harris functional with IExCor= 4538 and IRadAn=       5 diagonalized for initial guess.
 HarFok:  IExCor= 4538 AccDes= 0.00D+00 IRadAn=         5 IDoV= 1 UseB2=F ITyADJ=14
 ICtDFT=  3500011 ScaDFX=  1.000000  1.000000  1.000000  1.000000
 FoFCou: FMM=F IPFlag=           0 FMFlag=      100000 FMFlg1=           0
         NFxFlg=           0 DoJE=T BraDBF=F KetDBF=T FulRan=T
         wScrn=  0.000000 ICntrl=       500 IOpCl=  0 I1Cent=   200000004 NGrid=           0
         NMat0=    1 NMatS0=      1 NMatT0=    0 NMatD0=    1 NMtDS0=    0 NMtDT0=    0
 Petite list used in FoFCou.
 Keep R1 ints in memory in canonical form, NReq=7290840.
 Requested convergence on RMS density matrix=1.00D-08 within 128 cycles.
 Requested convergence on MAX density matrix=1.00D-06.
 Requested convergence on             energy=1.00D-06.
 No special actions if energy rises.
 Integral accuracy reduced to 1.0D-05 until final iterations.
 Initial convergence to 1.0D-05 achieved.  Increase integral accuracy.
 SCF Done:  E(RwB97X) =  -228.960205592     A.U. after   16 cycles
            NFock= 16  Conv=0.29D-08     -V/T= 2.0081

 **********************************************************************

            Population analysis using the SCF density.

 **********************************************************************

 Orbital symmetries:
       Occupied  (A) (A) (A) (A) (A) (A) (A) (A) (A) (A) (A) (A)
                 (A) (A) (A) (A)
       Virtual   (A) (A) (A) (A) (A) (A) (A) (A) (A) (A) (A) (A)
                 (A) (A) (A) (A) (A) (A) (A) (A) (A) (A) (A) (A)
                 (A) (A) (A) (A) (A) (A) (A) (A) (A) (A) (A) (A)
                 (A) (A) (A) (A) (A) (A) (A) (A) (A) (A) (A) (A)
                 (A) (A) (A) (A)
 The electronic state is 1-A.
 Alpha  occ. eigenvalues --  -19.22690 -19.22134 -10.35868 -10.33521  -1.20056
 Alpha  occ. eigenvalues --   -1.15025  -0.85856  -0.71461  -0.64301  -0.60687
 Alpha  occ. eigenvalues --   -0.56798  -0.53113  -0.50908  -0.43487  -0.41469
 Alpha  occ. eigenvalues --   -0.35117
 Alpha virt. eigenvalues --    0.07317   0.16101   0.21599   0.22995   0.25709
 Alpha virt. eigenvalues --    0.31848   0.37636   0.40803   0.62875   0.65641
 Alpha virt. eigenvalues --    0.66946   0.74471   0.77518   0.84812   0.86071
 Alpha virt. eigenvalues --    0.90483   0.95590   0.96896   0.97730   1.01515
 Alpha virt. eigenvalues --    1.06500   1.09891   1.13361   1.19434   1.23317
 Alpha virt. eigenvalues --    1.29123   1.53562   1.58657   1.60783   1.67746
 Alpha virt. eigenvalues --    1.71507   1.82266   1.85081   1.90656   1.92932
 Alpha virt. eigenvalues --    2.06917   2.15165   2.17322   2.25010   2.32881
 Alpha virt. eigenvalues --    2.41241   2.48718   2.62510   2.73618   2.78221
 Alpha virt. eigenvalues --    2.86464   3.04537   3.12149   3.81823   3.96782
 Alpha virt. eigenvalues --    4.22466   4.50579
          Condensed to atoms (all electrons):
               1          2          3          4          5          6
     1  C    4.651129   0.274548  -0.025194   0.575809   0.361638  -0.038974
     2  C    0.274548   5.128481   0.199515  -0.071598  -0.101561   0.372711
     3  O   -0.025194   0.199515   8.276855   0.001749   0.007196  -0.037288
     4  O    0.575809  -0.071598   0.001749   7.898530  -0.060604   0.007142
     5  H    0.361638  -0.101561   0.007196  -0.060604   0.663644   0.004422
     6  H   -0.038974   0.372711  -0.037288   0.007142   0.004422   0.512067
     7  H   -0.032906   0.357570  -0.029565   0.001595   0.002979  -0.023267
     8  H   -0.001018  -0.018916   0.245396  -0.000019   0.000712   0.004781
               7          8
     1  C   -0.032906  -0.001018
     2  C    0.357570  -0.018916
     3  O   -0.029565   0.245396
     4  O    0.001595  -0.000019
     5  H    0.002979   0.000712
     6  H   -0.023267   0.004781
     7  H    0.565375  -0.008505
     8  H   -0.008505   0.367225
 Mulliken charges:
               1
     1  C    0.234967
     2  C   -0.140748
     3  O   -0.638664
     4  O   -0.352604
     5  H    0.121575
     6  H    0.198405
     7  H    0.166725
     8  H    0.410344
 Sum of Mulliken charges =  -0.00000
 Mulliken charges with hydrogens summed into heavy atoms:
               1
     1  C    0.356542
     2  C    0.224382
     3  O   -0.228320
     4  O   -0.352604
 Electronic spatial extent (au):  <R**2>=            302.4924
 Charge=              0.0000 electrons
 Dipole moment (field-independent basis, Debye):
    X=              2.0968    Y=             -0.5433    Z=              2.2476  Tot=              3.1215
 Quadrupole moment (field-independent basis, Debye-Ang):
   XX=            -27.2824   YY=            -21.7587   ZZ=            -22.4052
   XY=             -0.2652   XZ=              2.7380   YZ=             -0.8619
 Traceless Quadrupole moment (field-independent basis, Debye-Ang):
   XX=             -3.4669   YY=              2.0567   ZZ=              1.4102
   XY=             -0.2652   XZ=              2.7380   YZ=             -0.8619
 Octapole moment (field-independent basis, Debye-Ang**2):
  XXX=             17.8343  YYY=             -0.8767  ZZZ=              0.0763  XYY=              1.4436
  XXY=             -5.5708  XXZ=              8.2694  XZZ=              0.3909  YZZ=              0.2063
  YYZ=              0.0706  XYZ=             -1.6225
 Hexadecapole moment (field-independent basis, Debye-Ang**3):
 XXXX=           -258.3875 YYYY=            -51.2612 ZZZZ=            -31.4787 XXXY=            -14.2200
 XXXZ=             13.0561 YYYX=             -2.0800 YYYZ=             -1.8203 ZZZX=              2.4144
 ZZZY=              0.1242 XXYY=            -48.9202 XXZZ=            -47.0003 YYZZ=            -13.4854
 XXYZ=             -2.9444 YYXZ=              0.8561 ZZXY=             -0.6786
 N-N= 1.161364659956D+02 E-N=-7.692581522193D+02  KE= 2.271239199077D+02
 1\1\GINC-NODE67\SP\RwB97X\6-31G(d)\C2H4O2\YANZ\22-Sep-2023\0\\# 6-31g(
 d) wb97x\\tmpdir/M2_ref_58.gjf\\0,1\C,0,7.329002,30.98657,36.598694\C,
 0,8.582564,30.502876,35.931757\O,0,9.661228,31.431,35.948758\O,0,6.625
 29875,30.29409061,37.22998924\H,0,7.014081,32.019358,36.473568\H,0,8.9
 8523717,29.58363995,36.43295612\H,0,8.385764,30.234457,34.876776\H,0,9
 .75494996,32.01042504,35.15925663\\Version=ES64L-G16RevA.03\State=1-A\
 HF=-228.9602056\RMSD=2.899e-09\Dipole=0.2990109,0.4547748,-1.100897\Qu
 adrupole=-3.2242999,1.468111,1.7561889,-1.1519872,0.1482435,-0.6834355
 \PG=C01 [X(C2H4O2)]\\@


 THE PROGRESS OF RIVERS TO THE SEA IS NOT AS RAPID
 AS THAT OF MAN TO ERROR.
                                              -- VOLTAIRE
 Job cpu time:       0 days  0 hours  0 minutes 20.9 seconds.
 Elapsed time:       0 days  0 hours  0 minutes 10.5 seconds.
 File lengths (MBytes):  RWF=      6 Int=      0 D2E=      0 Chk=      1 Scr=      1
 Normal termination of Gaussian 16 at Fri Sep 22 16:29:39 2023.
