 Entering Gaussian System, Link 0=g16
 Initial command:
 /share/apps/gaussian/g16/l1.exe "/tmp/55568.mgr/Gau-352724.inp" -scrdir="/tmp/55568.mgr/"
 Entering Link 1 = /share/apps/gaussian/g16/l1.exe PID=    352747.
  
 Copyright (c) 1988,1990,1992,1993,1995,1998,2003,2009,2016,
            Gaussian, Inc.  All Rights Reserved.
  
 This is part of the Gaussian(R) 16 program.  It is based on
 the Gaussian(R) 09 system (copyright 2009, Gaussian, Inc.),
 the Gaussian(R) 03 system (copyright 2003, Gaussian, Inc.),
 the Gaussian(R) 98 system (copyright 1998, Gaussian, Inc.),
 the Gaussian(R) 94 system (copyright 1995, Gaussian, Inc.),
 the Gaussian 92(TM) system (copyright 1992, Gaussian, Inc.),
 the Gaussian 90(TM) system (copyright 1990, Gaussian, Inc.),
 the Gaussian 88(TM) system (copyright 1988, Gaussian, Inc.),
 the Gaussian 86(TM) system (copyright 1986, Carnegie Mellon
 University), and the Gaussian 82(TM) system (copyright 1983,
 Carnegie Mellon University). Gaussian is a federally registered
 trademark of Gaussian, Inc.
  
 This software contains proprietary and confidential information,
 including trade secrets, belonging to Gaussian, Inc.
  
 This software is provided under written license and may be
 used, copied, transmitted, or stored only in accord with that
 written license.
  
 The following legend is applicable only to US Government
 contracts under FAR:
  
                    RESTRICTED RIGHTS LEGEND
  
 Use, reproduction and disclosure by the US Government is
 subject to restrictions as set forth in subparagraphs (a)
 and (c) of the Commercial Computer Software - Restricted
 Rights clause in FAR 52.227-19.
  
 Gaussian, Inc.
 340 Quinnipiac St., Bldg. 40, Wallingford CT 06492
  
  
 ---------------------------------------------------------------
 Warning -- This program may not be used in any manner that
 competes with the business of Gaussian, Inc. or will provide
 assistance to any competitor of Gaussian, Inc.  The licensee
 of this program is prohibited from giving any competitor of
 Gaussian, Inc. access to this program.  By using this program,
 the user acknowledges that Gaussian, Inc. is engaged in the
 business of creating and licensing software in the field of
 computational chemistry and represents and warrants to the
 licensee that it is not a competitor of Gaussian, Inc. and that
 it will not use this program in any manner prohibited above.
 ---------------------------------------------------------------
  

 Cite this work as:
 Gaussian 16, Revision A.03,
 M. J. Frisch, G. W. Trucks, H. B. Schlegel, G. E. Scuseria, 
 M. A. Robb, J. R. Cheeseman, G. Scalmani, V. Barone, 
 G. A. Petersson, H. Nakatsuji, X. Li, M. Caricato, A. V. Marenich, 
 J. Bloino, B. G. Janesko, R. Gomperts, B. Mennucci, H. P. Hratchian, 
 J. V. Ortiz, A. F. Izmaylov, J. L. Sonnenberg, D. Williams-Young, 
 F. Ding, F. Lipparini, F. Egidi, J. Goings, B. Peng, A. Petrone, 
 T. Henderson, D. Ranasinghe, V. G. Zakrzewski, J. Gao, N. Rega, 
 G. Zheng, W. Liang, M. Hada, M. Ehara, K. Toyota, R. Fukuda, 
 J. Hasegawa, M. Ishida, T. Nakajima, Y. Honda, O. Kitao, H. Nakai, 
 T. Vreven, K. Throssell, J. A. Montgomery, Jr., J. E. Peralta, 
 F. Ogliaro, M. J. Bearpark, J. J. Heyd, E. N. Brothers, K. N. Kudin, 
 V. N. Staroverov, T. A. Keith, R. Kobayashi, J. Normand, 
 K. Raghavachari, A. P. Rendell, J. C. Burant, S. S. Iyengar, 
 J. Tomasi, M. Cossi, J. M. Millam, M. Klene, C. Adamo, R. Cammi, 
 J. W. Ochterski, R. L. Martin, K. Morokuma, O. Farkas, 
 J. B. Foresman, and D. J. Fox, Gaussian, Inc., Wallingford CT, 2016.
 
 ******************************************
 Gaussian 16:  ES64L-G16RevA.03 25-Dec-2016
                22-Sep-2023 
 ******************************************
 %nprocshared=2
 Will use up to    2 processors via shared memory.
 %mem=2GB
 ----------------
 # 6-31g(d) wb97x
 ----------------
 1/38=1,172=1/1;
 2/12=2,17=6,18=5,40=1/2;
 3/5=1,6=6,7=1,11=2,25=1,30=1,74=-57/1,2,3;
 4//1;
 5/5=2,38=5/2;
 6/7=2,8=2,9=2,10=2,28=1/1;
 99/5=1,9=1/99;
 -------------------
 tmpdir/M2_ref_6.gjf
 -------------------
 Symbolic Z-matrix:
 Charge =  0 Multiplicity = 1
 C                     6.5308    30.2011   37.31476 
 C                     6.84799   28.76089   37.58169 
 H                     5.58206   30.57419   37.79206 
 O                     7.23451   30.89358   36.68346 
 H                     7.68711   28.36284   36.98249 
 H                     5.93539   28.17384   37.43345 
 H                     7.07278   28.66401   38.65506 
 
                          Input orientation:                          
 ---------------------------------------------------------------------
 Center     Atomic      Atomic             Coordinates (Angstroms)
 Number     Number       Type             X           Y           Z
 ---------------------------------------------------------------------
      1          6           0        6.530805   30.201104   37.314760
      2          6           0        6.847987   28.760885   37.581689
      3          1           0        5.582058   30.574190   37.792056
      4          8           0        7.234508   30.893583   36.683465
      5          1           0        7.687115   28.362843   36.982494
      6          1           0        5.935393   28.173842   37.433446
      7          1           0        7.072778   28.664014   38.655061
 ---------------------------------------------------------------------
                    Distance matrix (angstroms):
                    1          2          3          4          5
     1  C    0.000000
     2  C    1.498695   0.000000
     3  H    1.125666   2.221464   0.000000
     4  O    1.171862   2.346190   2.015335   0.000000
     5  H    2.196966   1.105264   3.158593   2.588227   0.000000
     6  H    2.116221   1.095182   2.452573   3.105989   1.818683
     7  H    2.110163   1.100928   2.572119   2.980659   1.807096
                    6          7
     6  H    0.000000
     7  H    1.739614   0.000000
 Stoichiometry    C2H4O
 Framework group  C1[X(C2H4O)]
 Deg. of freedom    15
 Full point group                 C1      NOp   1
 Largest Abelian subgroup         C1      NOp   1
 Largest concise Abelian subgroup C1      NOp   1
                         Standard orientation:                         
 ---------------------------------------------------------------------
 Center     Atomic      Atomic             Coordinates (Angstroms)
 Number     Number       Type             X           Y           Z
 ---------------------------------------------------------------------
      1          6           0        0.249393    0.401230   -0.009396
      2          6           0       -1.143942   -0.150745   -0.004232
      3          1           0        0.314466    1.524924    0.004799
      4          8           0        1.198319   -0.286257    0.003253
      5          1           0       -1.200594   -1.240391   -0.180502
      6          1           0       -1.737684    0.405536   -0.737339
      7          1           0       -1.595446    0.097075    0.968790
 ---------------------------------------------------------------------
 Rotational constants (GHZ):          55.7097245          10.5867488           9.4019071
 Standard basis: 6-31G(d) (6D, 7F)
 There are    53 symmetry adapted cartesian basis functions of A   symmetry.
 There are    53 symmetry adapted basis functions of A   symmetry.
    53 basis functions,   100 primitive gaussians,    53 cartesian basis functions
    12 alpha electrons       12 beta electrons
       nuclear repulsion energy        70.5653511888 Hartrees.
 NAtoms=    7 NActive=    7 NUniq=    7 SFac= 1.00D+00 NAtFMM=   60 NAOKFM=F Big=F
 Integral buffers will be    131072 words long.
 Raffenetti 2 integral format.
 Two-electron integral symmetry is turned on.
 One-electron integrals computed using PRISM.
 NBasis=    53 RedAO= T EigKep=  5.19D-03  NBF=    53
 NBsUse=    53 1.00D-06 EigRej= -1.00D+00 NBFU=    53
 ExpMin= 1.61D-01 ExpMax= 5.48D+03 ExpMxC= 8.25D+02 IAcc=3 IRadAn=         5 AccDes= 0.00D+00
 Harris functional with IExCor= 4538 and IRadAn=       5 diagonalized for initial guess.
 HarFok:  IExCor= 4538 AccDes= 0.00D+00 IRadAn=         5 IDoV= 1 UseB2=F ITyADJ=14
 ICtDFT=  3500011 ScaDFX=  1.000000  1.000000  1.000000  1.000000
 FoFCou: FMM=F IPFlag=           0 FMFlag=      100000 FMFlg1=           0
         NFxFlg=           0 DoJE=T BraDBF=F KetDBF=T FulRan=T
         wScrn=  0.000000 ICntrl=       500 IOpCl=  0 I1Cent=   200000004 NGrid=           0
         NMat0=    1 NMatS0=      1 NMatT0=    0 NMatD0=    1 NMtDS0=    0 NMtDT0=    0
 Petite list used in FoFCou.
 Keep R1 ints in memory in canonical form, NReq=3800804.
 Requested convergence on RMS density matrix=1.00D-08 within 128 cycles.
 Requested convergence on MAX density matrix=1.00D-06.
 Requested convergence on             energy=1.00D-06.
 No special actions if energy rises.
 Integral accuracy reduced to 1.0D-05 until final iterations.
 Initial convergence to 1.0D-05 achieved.  Increase integral accuracy.
 SCF Done:  E(RwB97X) =  -153.782277694     A.U. after   14 cycles
            NFock= 14  Conv=0.59D-08     -V/T= 2.0082

 **********************************************************************

            Population analysis using the SCF density.

 **********************************************************************

 Orbital symmetries:
       Occupied  (A) (A) (A) (A) (A) (A) (A) (A) (A) (A) (A) (A)
       Virtual   (A) (A) (A) (A) (A) (A) (A) (A) (A) (A) (A) (A)
                 (A) (A) (A) (A) (A) (A) (A) (A) (A) (A) (A) (A)
                 (A) (A) (A) (A) (A) (A) (A) (A) (A) (A) (A) (A)
                 (A) (A) (A) (A) (A)
 The electronic state is 1-A.
 Alpha  occ. eigenvalues --  -19.21555 -10.36192 -10.27700  -1.19327  -0.88037
 Alpha  occ. eigenvalues --   -0.69553  -0.59365  -0.55725  -0.54827  -0.50475
 Alpha  occ. eigenvalues --   -0.47254  -0.35412
 Alpha virt. eigenvalues --    0.08879   0.20518   0.22279   0.25254   0.25821
 Alpha virt. eigenvalues --    0.35403   0.38532   0.62986   0.65492   0.69263
 Alpha virt. eigenvalues --    0.70456   0.79123   0.85364   0.87244   0.95067
 Alpha virt. eigenvalues --    0.96238   0.98276   1.04027   1.06270   1.10616
 Alpha virt. eigenvalues --    1.19811   1.34702   1.49354   1.60246   1.64543
 Alpha virt. eigenvalues --    1.79726   1.92005   1.93344   1.96056   2.17927
 Alpha virt. eigenvalues --    2.22485   2.24299   2.40294   2.49284   2.68822
 Alpha virt. eigenvalues --    2.72979   3.00101   3.10601   3.96144   4.20105
 Alpha virt. eigenvalues --    4.45394
          Condensed to atoms (all electrons):
               1          2          3          4          5          6
     1  C    4.533666   0.314595   0.354547   0.615452  -0.020464  -0.022663
     2  C    0.314595   5.374024  -0.113143  -0.088578   0.364593   0.350960
     3  H    0.354547  -0.113143   0.691944  -0.056102   0.004185   0.005440
     4  O    0.615452  -0.088578  -0.056102   7.875857   0.004359   0.002502
     5  H   -0.020464   0.364593   0.004185   0.004359   0.485220  -0.017503
     6  H   -0.022663   0.350960   0.005440   0.002502  -0.017503   0.531662
     7  H   -0.022958   0.358403   0.004057   0.000525  -0.016884  -0.025902
               7
     1  C   -0.022958
     2  C    0.358403
     3  H    0.004057
     4  O    0.000525
     5  H   -0.016884
     6  H   -0.025902
     7  H    0.516782
 Mulliken charges:
               1
     1  C    0.247824
     2  C   -0.560855
     3  H    0.109073
     4  O   -0.354016
     5  H    0.196493
     6  H    0.175505
     7  H    0.185976
 Sum of Mulliken charges =   0.00000
 Mulliken charges with hydrogens summed into heavy atoms:
               1
     1  C    0.356897
     2  C   -0.002881
     4  O   -0.354016
 Electronic spatial extent (au):  <R**2>=            163.3801
 Charge=              0.0000 electrons
 Dipole moment (field-independent basis, Debye):
    X=             -2.2720    Y=              1.1019    Z=              0.0427  Tot=              2.5254
 Quadrupole moment (field-independent basis, Debye-Ang):
   XX=            -20.5662   YY=            -17.6229   ZZ=            -17.6339
   XY=              0.9091   XZ=             -0.1042   YZ=              0.0333
 Traceless Quadrupole moment (field-independent basis, Debye-Ang):
   XX=             -1.9585   YY=              0.9847   ZZ=              0.9738
   XY=              0.9091   XZ=             -0.1042   YZ=              0.0333
 Octapole moment (field-independent basis, Debye-Ang**2):
  XXX=              0.1958  YYY=             -1.2864  ZZZ=              0.4686  XYY=              0.7861
  XXY=              0.6955  XXZ=              0.0853  XZZ=              1.0460  YZZ=              0.0049
  YYZ=             -0.3103  XYZ=              0.0364
 Hexadecapole moment (field-independent basis, Debye-Ang**3):
 XXXX=           -143.2973 YYYY=            -41.1843 ZZZZ=            -21.9236 XXXY=             -1.8461
 XXXZ=             -0.0650 YYYX=              0.6443 YYYZ=              0.3589 ZZZX=             -0.7510
 ZZZY=             -0.0272 XXYY=            -29.7579 XXZZ=            -24.9017 YYZZ=            -11.2069
 XXYZ=             -0.2366 YYXZ=              0.4822 ZZXY=             -1.1944
 N-N= 7.056535118883D+01 E-N=-5.002697751324D+02  KE= 1.525279880582D+02
 1\1\GINC-NODE67\SP\RwB97X\6-31G(d)\C2H4O1\YANZ\22-Sep-2023\0\\# 6-31g(
 d) wb97x\\tmpdir/M2_ref_6.gjf\\0,1\C,0,6.530805,30.201104,37.31476\C,0
 ,6.847987,28.760885,37.581689\H,0,5.58205829,30.57418978,37.79205568\O
 ,0,7.23450825,30.89358339,36.68346476\H,0,7.68711493,28.36284253,36.98
 249381\H,0,5.935393,28.173842,37.433446\H,0,7.072778,28.664014,38.6550
 61\\Version=ES64L-G16RevA.03\State=1-A\HF=-153.7822777\RMSD=5.948e-09\
 Dipole=-0.4649207,-0.7037293,0.525179\Quadrupole=0.5396429,-0.8326706,
 0.2930277,-0.7871354,0.3238098,0.8910558\PG=C01 [X(C2H4O1)]\\@


 A FOOL CAN ASK MORE QUESTIONS THAN
 A WISE MAN CAN ANSWER.
 Job cpu time:       0 days  0 hours  0 minutes 13.5 seconds.
 Elapsed time:       0 days  0 hours  0 minutes  6.8 seconds.
 File lengths (MBytes):  RWF=      6 Int=      0 D2E=      0 Chk=      1 Scr=      1
 Normal termination of Gaussian 16 at Fri Sep 22 16:29:11 2023.
