 Entering Gaussian System, Link 0=g16
 Initial command:
 /share/apps/gaussian/g16/l1.exe "/tmp/55568.mgr/Gau-352956.inp" -scrdir="/tmp/55568.mgr/"
 Entering Link 1 = /share/apps/gaussian/g16/l1.exe PID=    352957.
  
 Copyright (c) 1988,1990,1992,1993,1995,1998,2003,2009,2016,
            Gaussian, Inc.  All Rights Reserved.
  
 This is part of the Gaussian(R) 16 program.  It is based on
 the Gaussian(R) 09 system (copyright 2009, Gaussian, Inc.),
 the Gaussian(R) 03 system (copyright 2003, Gaussian, Inc.),
 the Gaussian(R) 98 system (copyright 1998, Gaussian, Inc.),
 the Gaussian(R) 94 system (copyright 1995, Gaussian, Inc.),
 the Gaussian 92(TM) system (copyright 1992, Gaussian, Inc.),
 the Gaussian 90(TM) system (copyright 1990, Gaussian, Inc.),
 the Gaussian 88(TM) system (copyright 1988, Gaussian, Inc.),
 the Gaussian 86(TM) system (copyright 1986, Carnegie Mellon
 University), and the Gaussian 82(TM) system (copyright 1983,
 Carnegie Mellon University). Gaussian is a federally registered
 trademark of Gaussian, Inc.
  
 This software contains proprietary and confidential information,
 including trade secrets, belonging to Gaussian, Inc.
  
 This software is provided under written license and may be
 used, copied, transmitted, or stored only in accord with that
 written license.
  
 The following legend is applicable only to US Government
 contracts under FAR:
  
                    RESTRICTED RIGHTS LEGEND
  
 Use, reproduction and disclosure by the US Government is
 subject to restrictions as set forth in subparagraphs (a)
 and (c) of the Commercial Computer Software - Restricted
 Rights clause in FAR 52.227-19.
  
 Gaussian, Inc.
 340 Quinnipiac St., Bldg. 40, Wallingford CT 06492
  
  
 ---------------------------------------------------------------
 Warning -- This program may not be used in any manner that
 competes with the business of Gaussian, Inc. or will provide
 assistance to any competitor of Gaussian, Inc.  The licensee
 of this program is prohibited from giving any competitor of
 Gaussian, Inc. access to this program.  By using this program,
 the user acknowledges that Gaussian, Inc. is engaged in the
 business of creating and licensing software in the field of
 computational chemistry and represents and warrants to the
 licensee that it is not a competitor of Gaussian, Inc. and that
 it will not use this program in any manner prohibited above.
 ---------------------------------------------------------------
  

 Cite this work as:
 Gaussian 16, Revision A.03,
 M. J. Frisch, G. W. Trucks, H. B. Schlegel, G. E. Scuseria, 
 M. A. Robb, J. R. Cheeseman, G. Scalmani, V. Barone, 
 G. A. Petersson, H. Nakatsuji, X. Li, M. Caricato, A. V. Marenich, 
 J. Bloino, B. G. Janesko, R. Gomperts, B. Mennucci, H. P. Hratchian, 
 J. V. Ortiz, A. F. Izmaylov, J. L. Sonnenberg, D. Williams-Young, 
 F. Ding, F. Lipparini, F. Egidi, J. Goings, B. Peng, A. Petrone, 
 T. Henderson, D. Ranasinghe, V. G. Zakrzewski, J. Gao, N. Rega, 
 G. Zheng, W. Liang, M. Hada, M. Ehara, K. Toyota, R. Fukuda, 
 J. Hasegawa, M. Ishida, T. Nakajima, Y. Honda, O. Kitao, H. Nakai, 
 T. Vreven, K. Throssell, J. A. Montgomery, Jr., J. E. Peralta, 
 F. Ogliaro, M. J. Bearpark, J. J. Heyd, E. N. Brothers, K. N. Kudin, 
 V. N. Staroverov, T. A. Keith, R. Kobayashi, J. Normand, 
 K. Raghavachari, A. P. Rendell, J. C. Burant, S. S. Iyengar, 
 J. Tomasi, M. Cossi, J. M. Millam, M. Klene, C. Adamo, R. Cammi, 
 J. W. Ochterski, R. L. Martin, K. Morokuma, O. Farkas, 
 J. B. Foresman, and D. J. Fox, Gaussian, Inc., Wallingford CT, 2016.
 
 ******************************************
 Gaussian 16:  ES64L-G16RevA.03 25-Dec-2016
                22-Sep-2023 
 ******************************************
 %nprocshared=2
 Will use up to    2 processors via shared memory.
 %mem=2GB
 ----------------
 # 6-31g(d) wb97x
 ----------------
 1/38=1,172=1/1;
 2/12=2,17=6,18=5,40=1/2;
 3/5=1,6=6,7=1,11=2,25=1,30=1,74=-57/1,2,3;
 4//1;
 5/5=2,38=5/2;
 6/7=2,8=2,9=2,10=2,28=1/1;
 99/5=1,9=1/99;
 --------------------
 tmpdir/M2_ref_14.gjf
 --------------------
 Symbolic Z-matrix:
 Charge =  0 Multiplicity = 1
 C                     6.5308    30.2011   37.31476 
 C                     6.84799   28.76089   37.58169 
 C                     8.00719   28.21102   36.75394 
 H                     5.58206   30.57419   37.79206 
 O                     7.23451   30.89358   36.68346 
 H                     5.93539   28.17384   37.43345 
 H                     7.07278   28.66401   38.65506 
 H                     8.37618   27.22146   37.28808 
 H                     8.82637   28.95083   36.65997 
 H                     7.68017   27.90277   35.75447 
 
                          Input orientation:                          
 ---------------------------------------------------------------------
 Center     Atomic      Atomic             Coordinates (Angstroms)
 Number     Number       Type             X           Y           Z
 ---------------------------------------------------------------------
      1          6           0        6.530805   30.201104   37.314760
      2          6           0        6.847987   28.760885   37.581689
      3          6           0        8.007186   28.211016   36.753941
      4          1           0        5.582058   30.574190   37.792056
      5          8           0        7.234508   30.893583   36.683465
      6          1           0        5.935393   28.173842   37.433446
      7          1           0        7.072778   28.664014   38.655061
      8          1           0        8.376176   27.221461   37.288076
      9          1           0        8.826367   28.950825   36.659973
     10          1           0        7.680165   27.902771   35.754467
 ---------------------------------------------------------------------
                    Distance matrix (angstroms):
                    1          2          3          4          5
     1  C    0.000000
     2  C    1.498695   0.000000
     3  C    2.540604   1.526848   0.000000
     4  H    1.125666   2.221464   3.541683   0.000000
     5  O    1.171862   2.346190   2.792520   2.015335   0.000000
     6  H    2.116221   1.095182   2.180696   2.452573   3.105989
     7  H    2.110163   1.100928   2.166237   2.572119   2.980659
     8  H    3.504907   2.188926   1.183500   4.393390   3.892742
     9  H    2.694726   2.190805   1.107793   3.800324   2.511748
    10  H    3.006306   2.183488   1.095859   3.961098   3.163322
                    6          7          8          9         10
     6  H    0.000000
     7  H    1.739614   0.000000
     8  H    2.624039   2.376647   0.000000
     9  H    3.091876   2.671650   1.894172   0.000000
    10  H    2.436530   3.059715   1.816748   1.797815   0.000000
 Stoichiometry    C3H6O
 Framework group  C1[X(C3H6O)]
 Deg. of freedom    24
 Full point group                 C1      NOp   1
 Largest Abelian subgroup         C1      NOp   1
 Largest concise Abelian subgroup C1      NOp   1
                         Standard orientation:                         
 ---------------------------------------------------------------------
 Center     Atomic      Atomic             Coordinates (Angstroms)
 Number     Number       Type             X           Y           Z
 ---------------------------------------------------------------------
      1          6           0       -0.948823    0.404259    0.046584
      2          6           0        0.512183    0.726560   -0.040980
      3          6           0        1.427905   -0.493238    0.028393
      4          1           0       -1.625342    1.296600    0.161366
      5          8           0       -1.356935   -0.691503   -0.030943
      6          1           0        0.752274    1.453376    0.742295
      7          1           0        0.676655    1.267396   -0.985696
      8          1           0        2.482276   -0.159969   -0.393398
      9          1           0        1.013088   -1.345973   -0.544298
     10          1           0        1.608939   -0.804891    1.063287
 ---------------------------------------------------------------------
 Rotational constants (GHZ):          16.9496623           5.9875502           4.6893982
 Standard basis: 6-31G(d) (6D, 7F)
 There are    72 symmetry adapted cartesian basis functions of A   symmetry.
 There are    72 symmetry adapted basis functions of A   symmetry.
    72 basis functions,   136 primitive gaussians,    72 cartesian basis functions
    16 alpha electrons       16 beta electrons
       nuclear repulsion energy       119.2434799622 Hartrees.
 NAtoms=   10 NActive=   10 NUniq=   10 SFac= 1.00D+00 NAtFMM=   60 NAOKFM=F Big=F
 Integral buffers will be    131072 words long.
 Raffenetti 2 integral format.
 Two-electron integral symmetry is turned on.
 One-electron integrals computed using PRISM.
 NBasis=    72 RedAO= T EigKep=  4.07D-03  NBF=    72
 NBsUse=    72 1.00D-06 EigRej= -1.00D+00 NBFU=    72
 ExpMin= 1.61D-01 ExpMax= 5.48D+03 ExpMxC= 8.25D+02 IAcc=3 IRadAn=         5 AccDes= 0.00D+00
 Harris functional with IExCor= 4538 and IRadAn=       5 diagonalized for initial guess.
 HarFok:  IExCor= 4538 AccDes= 0.00D+00 IRadAn=         5 IDoV= 1 UseB2=F ITyADJ=14
 ICtDFT=  3500011 ScaDFX=  1.000000  1.000000  1.000000  1.000000
 FoFCou: FMM=F IPFlag=           0 FMFlag=      100000 FMFlg1=           0
         NFxFlg=           0 DoJE=T BraDBF=F KetDBF=T FulRan=T
         wScrn=  0.000000 ICntrl=       500 IOpCl=  0 I1Cent=   200000004 NGrid=           0
         NMat0=    1 NMatS0=      1 NMatT0=    0 NMatD0=    1 NMtDS0=    0 NMtDT0=    0
 Petite list used in FoFCou.
 Keep R1 ints in memory in canonical form, NReq=8702332.
 Requested convergence on RMS density matrix=1.00D-08 within 128 cycles.
 Requested convergence on MAX density matrix=1.00D-06.
 Requested convergence on             energy=1.00D-06.
 No special actions if energy rises.
 Integral accuracy reduced to 1.0D-05 until final iterations.
 Initial convergence to 1.0D-05 achieved.  Increase integral accuracy.
 SCF Done:  E(RwB97X) =  -193.082932330     A.U. after   14 cycles
            NFock= 14  Conv=0.40D-08     -V/T= 2.0091

 **********************************************************************

            Population analysis using the SCF density.

 **********************************************************************

 Orbital symmetries:
       Occupied  (A) (A) (A) (A) (A) (A) (A) (A) (A) (A) (A) (A)
                 (A) (A) (A) (A)
       Virtual   (A) (A) (A) (A) (A) (A) (A) (A) (A) (A) (A) (A)
                 (A) (A) (A) (A) (A) (A) (A) (A) (A) (A) (A) (A)
                 (A) (A) (A) (A) (A) (A) (A) (A) (A) (A) (A) (A)
                 (A) (A) (A) (A) (A) (A) (A) (A) (A) (A) (A) (A)
                 (A) (A) (A) (A) (A) (A) (A) (A)
 The electronic state is 1-A.
 Alpha  occ. eigenvalues --  -19.21719 -10.35878 -10.27944 -10.27341  -1.19479
 Alpha  occ. eigenvalues --   -0.91205  -0.78525  -0.67048  -0.60652  -0.57810
 Alpha  occ. eigenvalues --   -0.55230  -0.50029  -0.47502  -0.46722  -0.44802
 Alpha  occ. eigenvalues --   -0.35376
 Alpha virt. eigenvalues --    0.08830   0.18583   0.22000   0.22705   0.25029
 Alpha virt. eigenvalues --    0.27238   0.29557   0.31154   0.38638   0.40229
 Alpha virt. eigenvalues --    0.61953   0.63689   0.67316   0.68670   0.70236
 Alpha virt. eigenvalues --    0.78152   0.82894   0.84740   0.87170   0.92227
 Alpha virt. eigenvalues --    0.94880   0.97189   0.98778   1.01696   1.02539
 Alpha virt. eigenvalues --    1.05378   1.07623   1.11115   1.22939   1.24364
 Alpha virt. eigenvalues --    1.48087   1.58023   1.62748   1.67454   1.71364
 Alpha virt. eigenvalues --    1.87356   1.88898   1.91651   2.02801   2.04884
 Alpha virt. eigenvalues --    2.10026   2.22561   2.22982   2.30954   2.42544
 Alpha virt. eigenvalues --    2.45042   2.52322   2.55548   2.73561   2.81346
 Alpha virt. eigenvalues --    3.02794   3.11940   3.99362   4.21356   4.34967
 Alpha virt. eigenvalues --    4.57774
          Condensed to atoms (all electrons):
               1          2          3          4          5          6
     1  C    4.566487   0.291650  -0.035015   0.366975   0.617264  -0.024380
     2  C    0.291650   5.369210   0.316153  -0.117651  -0.101584   0.361562
     3  C   -0.035015   0.316153   5.087025   0.005586   0.006424  -0.030547
     4  H    0.366975  -0.117651   0.005586   0.680428  -0.054388   0.003995
     5  O    0.617264  -0.101584   0.006424  -0.054388   7.876121   0.002230
     6  H   -0.024380   0.361562  -0.030547   0.003995   0.002230   0.544580
     7  H   -0.024565   0.368714  -0.030784   0.003079   0.000155  -0.028198
     8  H    0.003936  -0.034036   0.372546  -0.000053   0.000283  -0.000042
     9  H   -0.005391  -0.038821   0.386859   0.000416   0.009742   0.003781
    10  H   -0.001834  -0.032747   0.388865  -0.000060   0.000446  -0.005228
               7          8          9         10
     1  C   -0.024565   0.003936  -0.005391  -0.001834
     2  C    0.368714  -0.034036  -0.038821  -0.032747
     3  C   -0.030784   0.372546   0.386859   0.388865
     4  H    0.003079  -0.000053   0.000416  -0.000060
     5  O    0.000155   0.000283   0.009742   0.000446
     6  H   -0.028198  -0.000042   0.003781  -0.005228
     7  H    0.532479  -0.006330  -0.000686   0.003735
     8  H   -0.006330   0.575073  -0.019854  -0.028264
     9  H   -0.000686  -0.019854   0.500194  -0.024056
    10  H    0.003735  -0.028264  -0.024056   0.528637
 Mulliken charges:
               1
     1  C    0.244874
     2  C   -0.382450
     3  C   -0.467112
     4  H    0.111673
     5  O   -0.356693
     6  H    0.172247
     7  H    0.182399
     8  H    0.136740
     9  H    0.187815
    10  H    0.170506
 Sum of Mulliken charges =  -0.00000
 Mulliken charges with hydrogens summed into heavy atoms:
               1
     1  C    0.356547
     2  C   -0.027803
     3  C    0.027949
     5  O   -0.356693
 Electronic spatial extent (au):  <R**2>=            298.9223
 Charge=              0.0000 electrons
 Dipole moment (field-independent basis, Debye):
    X=              1.2186    Y=              2.0552    Z=              0.0929  Tot=              2.3911
 Quadrupole moment (field-independent basis, Debye-Ang):
   XX=            -26.9606   YY=            -25.1155   ZZ=            -24.0144
   XY=             -2.2600   XZ=             -0.0511   YZ=             -0.0693
 Traceless Quadrupole moment (field-independent basis, Debye-Ang):
   XX=             -1.5971   YY=              0.2480   ZZ=              1.3491
   XY=             -2.2600   XZ=             -0.0511   YZ=             -0.0693
 Octapole moment (field-independent basis, Debye-Ang**2):
  XXX=             -2.2279  YYY=             -1.2246  ZZZ=              0.2976  XYY=             -1.0403
  XXY=              3.5668  XXZ=              0.1506  XZZ=             -1.7828  YZZ=             -0.4598
  YYZ=             -0.1896  XYZ=             -0.3332
 Hexadecapole moment (field-independent basis, Debye-Ang**3):
 XXXX=           -249.7515 YYYY=           -103.1433 ZZZZ=            -35.4728 XXXY=              0.2829
 XXXZ=             -0.8456 YYYX=              2.9074 YYYZ=              1.1481 ZZZX=              1.4117
 ZZZY=             -0.9135 XXYY=            -59.9830 XXZZ=            -45.9400 YYZZ=            -21.6685
 XXYZ=             -0.8121 YYXZ=              0.1319 ZZXY=              1.6945
 N-N= 1.192434799622D+02 E-N=-6.882564115034D+02  KE= 1.913372577577D+02
 1\1\GINC-NODE67\SP\RwB97X\6-31G(d)\C3H6O1\YANZ\22-Sep-2023\0\\# 6-31g(
 d) wb97x\\tmpdir/M2_ref_14.gjf\\0,1\C,0,6.530805,30.201104,37.31476\C,
 0,6.847987,28.760885,37.581689\C,0,8.007186,28.211016,36.753941\H,0,5.
 58205829,30.57418978,37.79205568\O,0,7.23450825,30.89358339,36.6834647
 6\H,0,5.935393,28.173842,37.433446\H,0,7.072778,28.664014,38.655061\H,
 0,8.37617572,27.22146116,37.28807635\H,0,8.82636725,28.95082532,36.659
 97263\H,0,7.680165,27.902771,35.754467\\Version=ES64L-G16RevA.03\State
 =1-A\HF=-193.0829323\RMSD=4.036e-09\Dipole=-0.4460222,-0.6740899,0.481
 2904\Quadrupole=1.1204327,-1.8533813,0.7329486,-0.4850904,0.0120706,1.
 0968532\PG=C01 [X(C3H6O1)]\\@


 SEEN ON A WALL AT THE UNIVERSITY OF ILLINOIS AT CHICAGO CIRCLE:

 TO DO IS TO BE  -- SOCRATES
 TO BE IS TO DO  -- SARTRE
 OO BE DO BE DO  -- SINATRA
 Job cpu time:       0 days  0 hours  0 minutes 22.6 seconds.
 Elapsed time:       0 days  0 hours  0 minutes 11.4 seconds.
 File lengths (MBytes):  RWF=      6 Int=      0 D2E=      0 Chk=      1 Scr=      1
 Normal termination of Gaussian 16 at Fri Sep 22 16:29:22 2023.
