 Entering Gaussian System, Link 0=g16
 Initial command:
 /share/apps/gaussian/g16/l1.exe "/tmp/55568.mgr/Gau-353088.inp" -scrdir="/tmp/55568.mgr/"
 Entering Link 1 = /share/apps/gaussian/g16/l1.exe PID=    353089.
  
 Copyright (c) 1988,1990,1992,1993,1995,1998,2003,2009,2016,
            Gaussian, Inc.  All Rights Reserved.
  
 This is part of the Gaussian(R) 16 program.  It is based on
 the Gaussian(R) 09 system (copyright 2009, Gaussian, Inc.),
 the Gaussian(R) 03 system (copyright 2003, Gaussian, Inc.),
 the Gaussian(R) 98 system (copyright 1998, Gaussian, Inc.),
 the Gaussian(R) 94 system (copyright 1995, Gaussian, Inc.),
 the Gaussian 92(TM) system (copyright 1992, Gaussian, Inc.),
 the Gaussian 90(TM) system (copyright 1990, Gaussian, Inc.),
 the Gaussian 88(TM) system (copyright 1988, Gaussian, Inc.),
 the Gaussian 86(TM) system (copyright 1986, Carnegie Mellon
 University), and the Gaussian 82(TM) system (copyright 1983,
 Carnegie Mellon University). Gaussian is a federally registered
 trademark of Gaussian, Inc.
  
 This software contains proprietary and confidential information,
 including trade secrets, belonging to Gaussian, Inc.
  
 This software is provided under written license and may be
 used, copied, transmitted, or stored only in accord with that
 written license.
  
 The following legend is applicable only to US Government
 contracts under FAR:
  
                    RESTRICTED RIGHTS LEGEND
  
 Use, reproduction and disclosure by the US Government is
 subject to restrictions as set forth in subparagraphs (a)
 and (c) of the Commercial Computer Software - Restricted
 Rights clause in FAR 52.227-19.
  
 Gaussian, Inc.
 340 Quinnipiac St., Bldg. 40, Wallingford CT 06492
  
  
 ---------------------------------------------------------------
 Warning -- This program may not be used in any manner that
 competes with the business of Gaussian, Inc. or will provide
 assistance to any competitor of Gaussian, Inc.  The licensee
 of this program is prohibited from giving any competitor of
 Gaussian, Inc. access to this program.  By using this program,
 the user acknowledges that Gaussian, Inc. is engaged in the
 business of creating and licensing software in the field of
 computational chemistry and represents and warrants to the
 licensee that it is not a competitor of Gaussian, Inc. and that
 it will not use this program in any manner prohibited above.
 ---------------------------------------------------------------
  

 Cite this work as:
 Gaussian 16, Revision A.03,
 M. J. Frisch, G. W. Trucks, H. B. Schlegel, G. E. Scuseria, 
 M. A. Robb, J. R. Cheeseman, G. Scalmani, V. Barone, 
 G. A. Petersson, H. Nakatsuji, X. Li, M. Caricato, A. V. Marenich, 
 J. Bloino, B. G. Janesko, R. Gomperts, B. Mennucci, H. P. Hratchian, 
 J. V. Ortiz, A. F. Izmaylov, J. L. Sonnenberg, D. Williams-Young, 
 F. Ding, F. Lipparini, F. Egidi, J. Goings, B. Peng, A. Petrone, 
 T. Henderson, D. Ranasinghe, V. G. Zakrzewski, J. Gao, N. Rega, 
 G. Zheng, W. Liang, M. Hada, M. Ehara, K. Toyota, R. Fukuda, 
 J. Hasegawa, M. Ishida, T. Nakajima, Y. Honda, O. Kitao, H. Nakai, 
 T. Vreven, K. Throssell, J. A. Montgomery, Jr., J. E. Peralta, 
 F. Ogliaro, M. J. Bearpark, J. J. Heyd, E. N. Brothers, K. N. Kudin, 
 V. N. Staroverov, T. A. Keith, R. Kobayashi, J. Normand, 
 K. Raghavachari, A. P. Rendell, J. C. Burant, S. S. Iyengar, 
 J. Tomasi, M. Cossi, J. M. Millam, M. Klene, C. Adamo, R. Cammi, 
 J. W. Ochterski, R. L. Martin, K. Morokuma, O. Farkas, 
 J. B. Foresman, and D. J. Fox, Gaussian, Inc., Wallingford CT, 2016.
 
 ******************************************
 Gaussian 16:  ES64L-G16RevA.03 25-Dec-2016
                22-Sep-2023 
 ******************************************
 %nprocshared=2
 Will use up to    2 processors via shared memory.
 %mem=2GB
 ----------------
 # 6-31g(d) wb97x
 ----------------
 1/38=1,172=1/1;
 2/12=2,17=6,18=5,40=1/2;
 3/5=1,6=6,7=1,11=2,25=1,30=1,74=-57/1,2,3;
 4//1;
 5/5=2,38=5/2;
 6/7=2,8=2,9=2,10=2,28=1/1;
 99/5=1,9=1/99;
 --------------------
 tmpdir/M2_ref_29.gjf
 --------------------
 Symbolic Z-matrix:
 Charge =  1 Multiplicity = 1
 N                     8.47663   26.95206   37.43349 
 H                     9.38001   26.6152   36.95615 
 H                     8.14793   27.83357   36.95768 
 H                     8.66668   27.14314   38.42023 
 H                     7.74344   26.24082   37.40246 
 
                          Input orientation:                          
 ---------------------------------------------------------------------
 Center     Atomic      Atomic             Coordinates (Angstroms)
 Number     Number       Type             X           Y           Z
 ---------------------------------------------------------------------
      1          7           0        8.476632   26.952058   37.433493
      2          1           0        9.380009   26.615197   36.956153
      3          1           0        8.147931   27.833567   36.957678
      4          1           0        8.666679   27.143140   38.420234
      5          1           0        7.743438   26.240824   37.402460
 ---------------------------------------------------------------------
                    Distance matrix (angstroms):
                    1          2          3          4          5
     1  N    0.000000
     2  H    1.075834   0.000000
     3  H    1.054278   1.732756   0.000000
     4  H    1.022882   1.712045   1.698487   0.000000
     5  H    1.021954   1.737156   1.702432   1.643901   0.000000
 Stoichiometry    H4N(1+)
 Framework group  C1[X(H4N)]
 Deg. of freedom     9
 Full point group                 C1      NOp   1
 Largest Abelian subgroup         C1      NOp   1
 Largest concise Abelian subgroup C1      NOp   1
                         Standard orientation:                         
 ---------------------------------------------------------------------
 Center     Atomic      Atomic             Coordinates (Angstroms)
 Number     Number       Type             X           Y           Z
 ---------------------------------------------------------------------
      1          7           0       -0.002205   -0.001044   -0.002697
      2          1           0        1.043171   -0.220122   -0.131586
      3          1           0       -0.129352    1.044902    0.033776
      4          1           0       -0.329901   -0.418929    0.871531
      5          1           0       -0.568485   -0.398540   -0.754838
 ---------------------------------------------------------------------
 Rotational constants (GHZ):         177.6630448         173.8214741         166.5064505
 Standard basis: 6-31G(d) (6D, 7F)
 There are    23 symmetry adapted cartesian basis functions of A   symmetry.
 There are    23 symmetry adapted basis functions of A   symmetry.
    23 basis functions,    44 primitive gaussians,    23 cartesian basis functions
     5 alpha electrons        5 beta electrons
       nuclear repulsion energy        16.0661146125 Hartrees.
 NAtoms=    5 NActive=    5 NUniq=    5 SFac= 1.00D+00 NAtFMM=   60 NAOKFM=F Big=F
 Integral buffers will be    131072 words long.
 Raffenetti 2 integral format.
 Two-electron integral symmetry is turned on.
 One-electron integrals computed using PRISM.
 NBasis=    23 RedAO= T EigKep=  2.01D-02  NBF=    23
 NBsUse=    23 1.00D-06 EigRej= -1.00D+00 NBFU=    23
 ExpMin= 1.61D-01 ExpMax= 4.17D+03 ExpMxC= 6.27D+02 IAcc=3 IRadAn=         5 AccDes= 0.00D+00
 Harris functional with IExCor= 4538 and IRadAn=       5 diagonalized for initial guess.
 HarFok:  IExCor= 4538 AccDes= 0.00D+00 IRadAn=         5 IDoV= 1 UseB2=F ITyADJ=14
 ICtDFT=  3500011 ScaDFX=  1.000000  1.000000  1.000000  1.000000
 FoFCou: FMM=F IPFlag=           0 FMFlag=      100000 FMFlg1=           0
         NFxFlg=           0 DoJE=T BraDBF=F KetDBF=T FulRan=T
         wScrn=  0.000000 ICntrl=       500 IOpCl=  0 I1Cent=   200000004 NGrid=           0
         NMat0=    1 NMatS0=      1 NMatT0=    0 NMatD0=    1 NMtDS0=    0 NMtDT0=    0
 Petite list used in FoFCou.
 Keep R1 ints in memory in canonical form, NReq=1800744.
 Requested convergence on RMS density matrix=1.00D-08 within 128 cycles.
 Requested convergence on MAX density matrix=1.00D-06.
 Requested convergence on             energy=1.00D-06.
 No special actions if energy rises.
 Integral accuracy reduced to 1.0D-05 until final iterations.
 Initial convergence to 1.0D-05 achieved.  Increase integral accuracy.
 SCF Done:  E(RwB97X) =  -56.8735339658     A.U. after   10 cycles
            NFock= 10  Conv=0.53D-08     -V/T= 2.0120

 **********************************************************************

            Population analysis using the SCF density.

 **********************************************************************

 Orbital symmetries:
       Occupied  (A) (A) (A) (A) (A)
       Virtual   (A) (A) (A) (A) (A) (A) (A) (A) (A) (A) (A) (A)
                 (A) (A) (A) (A) (A) (A)
 The electronic state is 1-A.
 Alpha  occ. eigenvalues --  -14.79088  -1.36612  -0.93397  -0.92953  -0.91958
 Alpha virt. eigenvalues --   -0.10737  -0.03489  -0.01966  -0.01472   0.44495
 Alpha virt. eigenvalues --    0.46050   0.46903   0.66746   0.68197   0.69876
 Alpha virt. eigenvalues --    0.71772   1.09653   1.36152   1.36622   2.04354
 Alpha virt. eigenvalues --    2.08284   2.11691   3.49558
          Condensed to atoms (all electrons):
               1          2          3          4          5
     1  N    6.692610   0.293356   0.296733   0.301697   0.301887
     2  H    0.293356   0.252888  -0.007720  -0.007586  -0.006530
     3  H    0.296733  -0.007720   0.253025  -0.007472  -0.007402
     4  H    0.301697  -0.007586  -0.007472   0.254534  -0.009103
     5  H    0.301887  -0.006530  -0.007402  -0.009103   0.251227
 Mulliken charges:
               1
     1  N   -0.886283
     2  H    0.475593
     3  H    0.472837
     4  H    0.467931
     5  H    0.469922
 Sum of Mulliken charges =   1.00000
 Mulliken charges with hydrogens summed into heavy atoms:
               1
     1  N    1.000000
 Electronic spatial extent (au):  <R**2>=             25.1924
 Charge=              1.0000 electrons
 Dipole moment (field-independent basis, Debye):
    X=              0.0497    Y=              0.0215    Z=              0.0291  Tot=              0.0614
 Quadrupole moment (field-independent basis, Debye-Ang):
   XX=             -4.1080   YY=             -4.2636   ZZ=             -4.5738
   XY=              0.0095   XZ=              0.0072   YZ=              0.0016
 Traceless Quadrupole moment (field-independent basis, Debye-Ang):
   XX=              0.2071   YY=              0.0515   ZZ=             -0.2587
   XY=              0.0095   XZ=              0.0072   YZ=              0.0016
 Octapole moment (field-independent basis, Debye-Ang**2):
  XXX=              2.0327  YYY=              2.2177  ZZZ=              0.5345  XYY=             -0.5587
  XXY=             -0.9087  XXZ=             -0.6465  XZZ=             -1.2557  YZZ=             -1.2197
  YYZ=              0.1528  XYZ=             -0.0568
 Hexadecapole moment (field-independent basis, Debye-Ang**3):
 XXXX=             -5.6206 YYYY=             -5.6272 ZZZZ=             -6.2570 XXXY=             -0.3941
 XXXZ=             -0.0932 YYYX=             -0.2176 YYYZ=              0.0603 ZZZX=              0.0806
 ZZZY=             -0.2696 XXYY=             -2.6145 XXZZ=             -2.1986 YYZZ=             -2.3252
 XXYZ=              0.2292 YYXZ=              0.0227 ZZXY=              0.5963
 N-N= 1.606611461247D+01 E-N=-1.605661825470D+02  KE= 5.619745640084D+01
 1\1\GINC-NODE67\SP\RwB97X\6-31G(d)\H4N1(1+)\YANZ\22-Sep-2023\0\\# 6-31
 g(d) wb97x\\tmpdir/M2_ref_29.gjf\\1,1\N,0,8.476632,26.952058,37.433493
 \H,0,9.380009,26.615197,36.956153\H,0,8.14793107,27.83356654,36.957678
 16\H,0,8.666679,27.14314,38.420234\H,0,7.743438,26.240824,37.40246\\Ve
 rsion=ES64L-G16RevA.03\State=1-A\HF=-56.873534\RMSD=5.334e-09\Dipole=0
 .020136,0.0118866,-0.0061056\Quadrupole=0.0831528,-0.0379913,-0.045161
 5,-0.0584301,-0.1192781,-0.0912452\PG=C01 [X(H4N1)]\\@


 THE GREAT THING ABOUT BEING IMPERFECT IS THE JOY IT BRINGS OTHERS.
   -- SIGN OUTSIDE LAKE AGASSIZ JR. HIGH SCHOOL, FARGO, N.D.
 Job cpu time:       0 days  0 hours  0 minutes  5.0 seconds.
 Elapsed time:       0 days  0 hours  0 minutes  2.5 seconds.
 File lengths (MBytes):  RWF=      6 Int=      0 D2E=      0 Chk=      1 Scr=      1
 Normal termination of Gaussian 16 at Fri Sep 22 16:29:18 2023.
