 Entering Gaussian System, Link 0=g16
 Initial command:
 /share/apps/gaussian/g16/l1.exe "/tmp/55476.mgr/Gau-8698.inp" -scrdir="/tmp/55476.mgr/"
 Entering Link 1 = /share/apps/gaussian/g16/l1.exe PID=      8699.
  
 Copyright (c) 1988,1990,1992,1993,1995,1998,2003,2009,2016,
            Gaussian, Inc.  All Rights Reserved.
  
 This is part of the Gaussian(R) 16 program.  It is based on
 the Gaussian(R) 09 system (copyright 2009, Gaussian, Inc.),
 the Gaussian(R) 03 system (copyright 2003, Gaussian, Inc.),
 the Gaussian(R) 98 system (copyright 1998, Gaussian, Inc.),
 the Gaussian(R) 94 system (copyright 1995, Gaussian, Inc.),
 the Gaussian 92(TM) system (copyright 1992, Gaussian, Inc.),
 the Gaussian 90(TM) system (copyright 1990, Gaussian, Inc.),
 the Gaussian 88(TM) system (copyright 1988, Gaussian, Inc.),
 the Gaussian 86(TM) system (copyright 1986, Carnegie Mellon
 University), and the Gaussian 82(TM) system (copyright 1983,
 Carnegie Mellon University). Gaussian is a federally registered
 trademark of Gaussian, Inc.
  
 This software contains proprietary and confidential information,
 including trade secrets, belonging to Gaussian, Inc.
  
 This software is provided under written license and may be
 used, copied, transmitted, or stored only in accord with that
 written license.
  
 The following legend is applicable only to US Government
 contracts under FAR:
  
                    RESTRICTED RIGHTS LEGEND
  
 Use, reproduction and disclosure by the US Government is
 subject to restrictions as set forth in subparagraphs (a)
 and (c) of the Commercial Computer Software - Restricted
 Rights clause in FAR 52.227-19.
  
 Gaussian, Inc.
 340 Quinnipiac St., Bldg. 40, Wallingford CT 06492
  
  
 ---------------------------------------------------------------
 Warning -- This program may not be used in any manner that
 competes with the business of Gaussian, Inc. or will provide
 assistance to any competitor of Gaussian, Inc.  The licensee
 of this program is prohibited from giving any competitor of
 Gaussian, Inc. access to this program.  By using this program,
 the user acknowledges that Gaussian, Inc. is engaged in the
 business of creating and licensing software in the field of
 computational chemistry and represents and warrants to the
 licensee that it is not a competitor of Gaussian, Inc. and that
 it will not use this program in any manner prohibited above.
 ---------------------------------------------------------------
  

 Cite this work as:
 Gaussian 16, Revision A.03,
 M. J. Frisch, G. W. Trucks, H. B. Schlegel, G. E. Scuseria, 
 M. A. Robb, J. R. Cheeseman, G. Scalmani, V. Barone, 
 G. A. Petersson, H. Nakatsuji, X. Li, M. Caricato, A. V. Marenich, 
 J. Bloino, B. G. Janesko, R. Gomperts, B. Mennucci, H. P. Hratchian, 
 J. V. Ortiz, A. F. Izmaylov, J. L. Sonnenberg, D. Williams-Young, 
 F. Ding, F. Lipparini, F. Egidi, J. Goings, B. Peng, A. Petrone, 
 T. Henderson, D. Ranasinghe, V. G. Zakrzewski, J. Gao, N. Rega, 
 G. Zheng, W. Liang, M. Hada, M. Ehara, K. Toyota, R. Fukuda, 
 J. Hasegawa, M. Ishida, T. Nakajima, Y. Honda, O. Kitao, H. Nakai, 
 T. Vreven, K. Throssell, J. A. Montgomery, Jr., J. E. Peralta, 
 F. Ogliaro, M. J. Bearpark, J. J. Heyd, E. N. Brothers, K. N. Kudin, 
 V. N. Staroverov, T. A. Keith, R. Kobayashi, J. Normand, 
 K. Raghavachari, A. P. Rendell, J. C. Burant, S. S. Iyengar, 
 J. Tomasi, M. Cossi, J. M. Millam, M. Klene, C. Adamo, R. Cammi, 
 J. W. Ochterski, R. L. Martin, K. Morokuma, O. Farkas, 
 J. B. Foresman, and D. J. Fox, Gaussian, Inc., Wallingford CT, 2016.
 
 ******************************************
 Gaussian 16:  ES64L-G16RevA.03 25-Dec-2016
                22-Sep-2023 
 ******************************************
 %nprocshared=4
 Will use up to    4 processors via shared memory.
 %mem=4GB
 ----------------
 # 6-31g(d) wb97x
 ----------------
 1/38=1,172=1/1;
 2/12=2,17=6,18=5,40=1/2;
 3/5=1,6=6,7=1,11=2,25=1,30=1,74=-57/1,2,3;
 4//1;
 5/5=2,38=5/2;
 6/7=2,8=2,9=2,10=2,28=1/1;
 99/5=1,9=1/99;
 --------------------
 tmpdir/M1_ref_12.gjf
 --------------------
 Symbolic Z-matrix:
 Charge =  0 Multiplicity = 1
 N                     1.82945  -1.65096   14.90158 
 H                     1.85535  -2.50958   15.43048 
 H                     0.9552   -1.38973   14.53928 
 H                     2.70137  -1.24675   14.86383 
 
                          Input orientation:                          
 ---------------------------------------------------------------------
 Center     Atomic      Atomic             Coordinates (Angstroms)
 Number     Number       Type             X           Y           Z
 ---------------------------------------------------------------------
      1          7           0        1.829453   -1.650958   14.901584
      2          1           0        1.855350   -2.509577   15.430483
      3          1           0        0.955196   -1.389725   14.539281
      4          1           0        2.701372   -1.246754   14.863826
 ---------------------------------------------------------------------
                    Distance matrix (angstroms):
                    1          2          3          4
     1  N    0.000000
     2  H    1.008777   0.000000
     3  H    0.981749   1.690736   0.000000
     4  H    0.961795   1.622213   1.781826   0.000000
 Stoichiometry    H3N
 Framework group  C1[X(H3N)]
 Deg. of freedom     6
 Full point group                 C1      NOp   1
 Largest Abelian subgroup         C1      NOp   1
 Largest concise Abelian subgroup C1      NOp   1
                         Standard orientation:                         
 ---------------------------------------------------------------------
 Center     Atomic      Atomic             Coordinates (Angstroms)
 Number     Number       Type             X           Y           Z
 ---------------------------------------------------------------------
      1          7           0        0.007758   -0.022007   -0.000508
      2          1           0       -0.249478    0.953421    0.000990
      3          1           0        0.969759   -0.217924    0.001298
      4          1           0       -0.774589   -0.581451    0.001271
 ---------------------------------------------------------------------
 Rotational constants (GHZ):         385.7466608         312.7572797         172.7200989
 Standard basis: 6-31G(d) (6D, 7F)
 There are    21 symmetry adapted cartesian basis functions of A   symmetry.
 There are    21 symmetry adapted basis functions of A   symmetry.
    21 basis functions,    40 primitive gaussians,    21 cartesian basis functions
     5 alpha electrons        5 beta electrons
       nuclear repulsion energy        12.2326735736 Hartrees.
 NAtoms=    4 NActive=    4 NUniq=    4 SFac= 1.00D+00 NAtFMM=   60 NAOKFM=F Big=F
 Integral buffers will be    131072 words long.
 Raffenetti 2 integral format.
 Two-electron integral symmetry is turned on.
 One-electron integrals computed using PRISM.
 NBasis=    21 RedAO= T EigKep=  2.35D-02  NBF=    21
 NBsUse=    21 1.00D-06 EigRej= -1.00D+00 NBFU=    21
 ExpMin= 1.61D-01 ExpMax= 4.17D+03 ExpMxC= 6.27D+02 IAcc=3 IRadAn=         5 AccDes= 0.00D+00
 Harris functional with IExCor= 4538 and IRadAn=       5 diagonalized for initial guess.
 HarFok:  IExCor= 4538 AccDes= 0.00D+00 IRadAn=         5 IDoV= 1 UseB2=F ITyADJ=14
 ICtDFT=  3500011 ScaDFX=  1.000000  1.000000  1.000000  1.000000
 FoFCou: FMM=F IPFlag=           0 FMFlag=      100000 FMFlg1=           0
         NFxFlg=           0 DoJE=T BraDBF=F KetDBF=T FulRan=T
         wScrn=  0.000000 ICntrl=       500 IOpCl=  0 I1Cent=   200000004 NGrid=           0
         NMat0=    1 NMatS0=      1 NMatT0=    0 NMatD0=    1 NMtDS0=    0 NMtDT0=    0
 Petite list used in FoFCou.
 Keep R1 ints in memory in canonical form, NReq=3501113.
 Requested convergence on RMS density matrix=1.00D-08 within 128 cycles.
 Requested convergence on MAX density matrix=1.00D-06.
 Requested convergence on             energy=1.00D-06.
 No special actions if energy rises.
 Integral accuracy reduced to 1.0D-05 until final iterations.
 Initial convergence to 1.0D-05 achieved.  Increase integral accuracy.
 SCF Done:  E(RwB97X) =  -56.5139521677     A.U. after   10 cycles
            NFock= 10  Conv=0.66D-08     -V/T= 2.0079

 **********************************************************************

            Population analysis using the SCF density.

 **********************************************************************

 Orbital symmetries:
       Occupied  (A) (A) (A) (A) (A)
       Virtual   (A) (A) (A) (A) (A) (A) (A) (A) (A) (A) (A) (A)
                 (A) (A) (A) (A)
 The electronic state is 1-A.
 Alpha  occ. eigenvalues --  -14.35807  -0.95532  -0.60679  -0.55790  -0.32373
 Alpha virt. eigenvalues --    0.19865   0.28431   0.29916   0.77268   0.83764
 Alpha virt. eigenvalues --    0.88752   0.94650   1.05782   1.11165   1.21601
 Alpha virt. eigenvalues --    1.79853   1.82268   2.30219   2.37550   2.57034
 Alpha virt. eigenvalues --    3.83797
          Condensed to atoms (all electrons):
               1          2          3          4
     1  N    6.942036   0.345697   0.350442   0.353049
     2  H    0.345697   0.393436  -0.024254  -0.029365
     3  H    0.350442  -0.024254   0.349358  -0.015847
     4  H    0.353049  -0.029365  -0.015847   0.355725
 Mulliken charges:
               1
     1  N   -0.991225
     2  H    0.314486
     3  H    0.340301
     4  H    0.336438
 Sum of Mulliken charges =   0.00000
 Mulliken charges with hydrogens summed into heavy atoms:
               1
     1  N    0.000000
 Electronic spatial extent (au):  <R**2>=             25.3520
 Charge=              0.0000 electrons
 Dipole moment (field-independent basis, Debye):
    X=             -0.0597    Y=              0.1760    Z=              0.0102  Tot=              0.1861
 Quadrupole moment (field-independent basis, Debye-Ang):
   XX=             -5.0486   YY=             -5.8761   ZZ=             -9.2402
   XY=              0.0413   XZ=              0.0001   YZ=             -0.0005
 Traceless Quadrupole moment (field-independent basis, Debye-Ang):
   XX=              1.6730   YY=              0.8456   ZZ=             -2.5186
   XY=              0.0413   XZ=              0.0001   YZ=             -0.0005
 Octapole moment (field-independent basis, Debye-Ang**2):
  XXX=              0.6733  YYY=              1.0218  ZZZ=              0.0095  XYY=             -0.7126
  XXY=             -0.7949  XXZ=              0.0058  XZZ=             -0.0320  YZZ=              0.0412
  YYZ=              0.0046  XYZ=              0.0001
 Hexadecapole moment (field-independent basis, Debye-Ang**3):
 XXXX=             -7.9258 YYYY=             -8.5754 ZZZZ=             -8.7077 XXXY=              0.1900
 XXXZ=              0.0013 YYYX=             -0.0769 YYYZ=              0.0008 ZZZX=              0.0001
 ZZZY=             -0.0005 XXYY=             -2.8858 XXZZ=             -3.2132 YYZZ=             -3.1833
 XXYZ=             -0.0015 YYXZ=             -0.0010 ZZXY=              0.0216
 N-N= 1.223267357360D+01 E-N=-1.563371999001D+02  KE= 5.606871626328D+01
 1\1\GINC-NODE99\SP\RwB97X\6-31G(d)\H3N1\YANZ\22-Sep-2023\0\\# 6-31g(d)
  wb97x\\tmpdir/M1_ref_12.gjf\\0,1\N,0,1.829453,-1.650958,14.901584\H,0
 ,1.85535,-2.509577,15.430483\H,0,0.95519561,-1.38972519,14.539281\H,0,
 2.70137245,-1.24675429,14.86382631\\Version=ES64L-G16RevA.03\State=1-A
 \HF=-56.5139522\RMSD=6.621e-09\Dipole=0.0060624,-0.0594718,0.0423073\Q
 uadrupole=1.1044842,-0.0172413,-1.0872429,0.218897,0.5684468,-1.073827
 6\PG=C01 [X(H3N1)]\\@


 In the beginning there was nothing, which exploded.
 Job cpu time:       0 days  0 hours  0 minutes  5.3 seconds.
 Elapsed time:       0 days  0 hours  0 minutes  1.5 seconds.
 File lengths (MBytes):  RWF=      6 Int=      0 D2E=      0 Chk=      1 Scr=      1
 Normal termination of Gaussian 16 at Fri Sep 22 11:10:23 2023.
