 Entering Gaussian System, Link 0=g16
 Initial command:
 /share/apps/gaussian/g16/l1.exe "/tmp/55476.mgr/Gau-8567.inp" -scrdir="/tmp/55476.mgr/"
 Entering Link 1 = /share/apps/gaussian/g16/l1.exe PID=      8569.
  
 Copyright (c) 1988,1990,1992,1993,1995,1998,2003,2009,2016,
            Gaussian, Inc.  All Rights Reserved.
  
 This is part of the Gaussian(R) 16 program.  It is based on
 the Gaussian(R) 09 system (copyright 2009, Gaussian, Inc.),
 the Gaussian(R) 03 system (copyright 2003, Gaussian, Inc.),
 the Gaussian(R) 98 system (copyright 1998, Gaussian, Inc.),
 the Gaussian(R) 94 system (copyright 1995, Gaussian, Inc.),
 the Gaussian 92(TM) system (copyright 1992, Gaussian, Inc.),
 the Gaussian 90(TM) system (copyright 1990, Gaussian, Inc.),
 the Gaussian 88(TM) system (copyright 1988, Gaussian, Inc.),
 the Gaussian 86(TM) system (copyright 1986, Carnegie Mellon
 University), and the Gaussian 82(TM) system (copyright 1983,
 Carnegie Mellon University). Gaussian is a federally registered
 trademark of Gaussian, Inc.
  
 This software contains proprietary and confidential information,
 including trade secrets, belonging to Gaussian, Inc.
  
 This software is provided under written license and may be
 used, copied, transmitted, or stored only in accord with that
 written license.
  
 The following legend is applicable only to US Government
 contracts under FAR:
  
                    RESTRICTED RIGHTS LEGEND
  
 Use, reproduction and disclosure by the US Government is
 subject to restrictions as set forth in subparagraphs (a)
 and (c) of the Commercial Computer Software - Restricted
 Rights clause in FAR 52.227-19.
  
 Gaussian, Inc.
 340 Quinnipiac St., Bldg. 40, Wallingford CT 06492
  
  
 ---------------------------------------------------------------
 Warning -- This program may not be used in any manner that
 competes with the business of Gaussian, Inc. or will provide
 assistance to any competitor of Gaussian, Inc.  The licensee
 of this program is prohibited from giving any competitor of
 Gaussian, Inc. access to this program.  By using this program,
 the user acknowledges that Gaussian, Inc. is engaged in the
 business of creating and licensing software in the field of
 computational chemistry and represents and warrants to the
 licensee that it is not a competitor of Gaussian, Inc. and that
 it will not use this program in any manner prohibited above.
 ---------------------------------------------------------------
  

 Cite this work as:
 Gaussian 16, Revision A.03,
 M. J. Frisch, G. W. Trucks, H. B. Schlegel, G. E. Scuseria, 
 M. A. Robb, J. R. Cheeseman, G. Scalmani, V. Barone, 
 G. A. Petersson, H. Nakatsuji, X. Li, M. Caricato, A. V. Marenich, 
 J. Bloino, B. G. Janesko, R. Gomperts, B. Mennucci, H. P. Hratchian, 
 J. V. Ortiz, A. F. Izmaylov, J. L. Sonnenberg, D. Williams-Young, 
 F. Ding, F. Lipparini, F. Egidi, J. Goings, B. Peng, A. Petrone, 
 T. Henderson, D. Ranasinghe, V. G. Zakrzewski, J. Gao, N. Rega, 
 G. Zheng, W. Liang, M. Hada, M. Ehara, K. Toyota, R. Fukuda, 
 J. Hasegawa, M. Ishida, T. Nakajima, Y. Honda, O. Kitao, H. Nakai, 
 T. Vreven, K. Throssell, J. A. Montgomery, Jr., J. E. Peralta, 
 F. Ogliaro, M. J. Bearpark, J. J. Heyd, E. N. Brothers, K. N. Kudin, 
 V. N. Staroverov, T. A. Keith, R. Kobayashi, J. Normand, 
 K. Raghavachari, A. P. Rendell, J. C. Burant, S. S. Iyengar, 
 J. Tomasi, M. Cossi, J. M. Millam, M. Klene, C. Adamo, R. Cammi, 
 J. W. Ochterski, R. L. Martin, K. Morokuma, O. Farkas, 
 J. B. Foresman, and D. J. Fox, Gaussian, Inc., Wallingford CT, 2016.
 
 ******************************************
 Gaussian 16:  ES64L-G16RevA.03 25-Dec-2016
                22-Sep-2023 
 ******************************************
 %nprocshared=4
 Will use up to    4 processors via shared memory.
 %mem=4GB
 ----------------
 # 6-31g(d) wb97x
 ----------------
 1/38=1,172=1/1;
 2/12=2,17=6,18=5,40=1/2;
 3/5=1,6=6,7=1,11=2,25=1,30=1,74=-57/1,2,3;
 4//1;
 5/5=2,38=5/2;
 6/7=2,8=2,9=2,10=2,28=1/1;
 99/5=1,9=1/99;
 --------------------
 tmpdir/M1_ref_11.gjf
 --------------------
 Symbolic Z-matrix:
 Charge =  0 Multiplicity = 1
 C                    -0.32443  -3.35519   15.54789 
 H                    -1.27948  -3.86961   15.68462 
 H                     0.06139  -3.11553   16.5476 
 H                     0.36703  -4.07413   15.08831 
 H                    -0.45582  -2.46206   14.93412 
 
                          Input orientation:                          
 ---------------------------------------------------------------------
 Center     Atomic      Atomic             Coordinates (Angstroms)
 Number     Number       Type             X           Y           Z
 ---------------------------------------------------------------------
      1          6           0       -0.324432   -3.355190   15.547891
      2          1           0       -1.279484   -3.869605   15.684622
      3          1           0        0.061389   -3.115527   16.547597
      4          1           0        0.367026   -4.074128   15.088315
      5          1           0       -0.455817   -2.462058   14.934120
 ---------------------------------------------------------------------
                    Distance matrix (angstroms):
                    1          2          3          4          5
     1  C    0.000000
     2  H    1.093363   0.000000
     3  H    1.098047   1.763888   0.000000
     4  H    1.098270   1.763067   1.772522   0.000000
     5  H    1.091632   1.795235   1.815993   1.816485   0.000000
 Stoichiometry    CH4
 Framework group  C1[X(CH4)]
 Deg. of freedom     9
 Full point group                 C1      NOp   1
 Largest Abelian subgroup         C1      NOp   1
 Largest concise Abelian subgroup C1      NOp   1
                         Standard orientation:                         
 ---------------------------------------------------------------------
 Center     Atomic      Atomic             Coordinates (Angstroms)
 Number     Number       Type             X           Y           Z
 ---------------------------------------------------------------------
      1          6           0       -0.011141    0.000173   -0.004196
      2          1           0        0.205145   -0.040325    1.066796
      3          1           0        0.469537    0.905223   -0.398583
      4          1           0        0.481223   -0.865965   -0.466340
      5          1           0       -1.089058    0.000027   -0.176699
 ---------------------------------------------------------------------
 Rotational constants (GHZ):         160.8909753         155.3855546         154.1834131
 Standard basis: 6-31G(d) (6D, 7F)
 There are    23 symmetry adapted cartesian basis functions of A   symmetry.
 There are    23 symmetry adapted basis functions of A   symmetry.
    23 basis functions,    44 primitive gaussians,    23 cartesian basis functions
     5 alpha electrons        5 beta electrons
       nuclear repulsion energy        13.3711936196 Hartrees.
 NAtoms=    5 NActive=    5 NUniq=    5 SFac= 1.00D+00 NAtFMM=   60 NAOKFM=F Big=F
 Integral buffers will be    131072 words long.
 Raffenetti 2 integral format.
 Two-electron integral symmetry is turned on.
 One-electron integrals computed using PRISM.
 NBasis=    23 RedAO= T EigKep=  1.81D-02  NBF=    23
 NBsUse=    23 1.00D-06 EigRej= -1.00D+00 NBFU=    23
 ExpMin= 1.61D-01 ExpMax= 3.05D+03 ExpMxC= 4.57D+02 IAcc=3 IRadAn=         5 AccDes= 0.00D+00
 Harris functional with IExCor= 4538 and IRadAn=       5 diagonalized for initial guess.
 HarFok:  IExCor= 4538 AccDes= 0.00D+00 IRadAn=         5 IDoV= 1 UseB2=F ITyADJ=14
 ICtDFT=  3500011 ScaDFX=  1.000000  1.000000  1.000000  1.000000
 FoFCou: FMM=F IPFlag=           0 FMFlag=      100000 FMFlg1=           0
         NFxFlg=           0 DoJE=T BraDBF=F KetDBF=T FulRan=T
         wScrn=  0.000000 ICntrl=       500 IOpCl=  0 I1Cent=   200000004 NGrid=           0
         NMat0=    1 NMatS0=      1 NMatT0=    0 NMatD0=    1 NMtDS0=    0 NMtDT0=    0
 Petite list used in FoFCou.
 Keep R1 ints in memory in canonical form, NReq=3524626.
 Requested convergence on RMS density matrix=1.00D-08 within 128 cycles.
 Requested convergence on MAX density matrix=1.00D-06.
 Requested convergence on             energy=1.00D-06.
 No special actions if energy rises.
 Integral accuracy reduced to 1.0D-05 until final iterations.
 Initial convergence to 1.0D-05 achieved.  Increase integral accuracy.
 SCF Done:  E(RwB97X) =  -40.4990296768     A.U. after   11 cycles
            NFock= 11  Conv=0.21D-08     -V/T= 2.0113

 **********************************************************************

            Population analysis using the SCF density.

 **********************************************************************

 Orbital symmetries:
       Occupied  (A) (A) (A) (A) (A)
       Virtual   (A) (A) (A) (A) (A) (A) (A) (A) (A) (A) (A) (A)
                 (A) (A) (A) (A) (A) (A)
 The electronic state is 1-A.
 Alpha  occ. eigenvalues --  -10.24978  -0.81720  -0.50227  -0.49090  -0.49033
 Alpha virt. eigenvalues --    0.21589   0.27285   0.27370   0.27796   0.63849
 Alpha virt. eigenvalues --    0.64046   0.64472   1.01204   1.01314   1.02434
 Alpha virt. eigenvalues --    1.06940   1.20876   1.75802   1.75887   2.34224
 Alpha virt. eigenvalues --    2.35419   2.36220   4.30602
          Condensed to atoms (all electrons):
               1          2          3          4          5
     1  C    5.125143   0.384925   0.384914   0.384873   0.387218
     2  H    0.384925   0.525379  -0.026331  -0.026434  -0.023323
     3  H    0.384914  -0.026331   0.523406  -0.025902  -0.021563
     4  H    0.384873  -0.026434  -0.025902   0.523583  -0.021513
     5  H    0.387218  -0.023323  -0.021563  -0.021513   0.508761
 Mulliken charges:
               1
     1  C   -0.667073
     2  H    0.165783
     3  H    0.165476
     4  H    0.165394
     5  H    0.170420
 Sum of Mulliken charges =  -0.00000
 Mulliken charges with hydrogens summed into heavy atoms:
               1
     1  C   -0.000000
 Electronic spatial extent (au):  <R**2>=             35.5501
 Charge=             -0.0000 electrons
 Dipole moment (field-independent basis, Debye):
    X=              0.0347    Y=             -0.0007    Z=              0.0201  Tot=              0.0401
 Quadrupole moment (field-independent basis, Debye-Ang):
   XX=             -8.1072   YY=             -8.3167   ZZ=             -8.3484
   XY=              0.0002   XZ=              0.0088   YZ=             -0.0005
 Traceless Quadrupole moment (field-independent basis, Debye-Ang):
   XX=              0.1502   YY=             -0.0592   ZZ=             -0.0910
   XY=              0.0002   XZ=              0.0088   YZ=             -0.0005
 Octapole moment (field-independent basis, Debye-Ang**2):
  XXX=             -0.8107  YYY=              0.0645  ZZZ=              0.7732  XYY=              0.5703
  XXY=             -0.0024  XXZ=             -0.2620  XZZ=              0.2953  YZZ=             -0.0635
  YYZ=             -0.4582  XYZ=              0.0116
 Hexadecapole moment (field-independent basis, Debye-Ang**3):
 XXXX=            -14.9102 YYYY=            -15.1130 ZZZZ=            -14.8602 XXXY=             -0.0031
 XXXZ=              0.1767 YYYX=              0.0410 YYYZ=              0.0071 ZZZX=              0.2207
 ZZZY=             -0.0221 XXYY=             -5.1148 XXZZ=             -5.3104 YYZZ=             -5.1533
 XXYZ=              0.0135 YYXZ=             -0.3565 ZZXY=             -0.0366
 N-N= 1.337119361962D+01 E-N=-1.197426225369D+02  KE= 4.004605169855D+01
 1\1\GINC-NODE99\SP\RwB97X\6-31G(d)\C1H4\YANZ\22-Sep-2023\0\\# 6-31g(d)
  wb97x\\tmpdir/M1_ref_11.gjf\\0,1\C,0,-0.324432,-3.35519,15.547891\H,0
 ,-1.279484,-3.869605,15.684622\H,0,0.061389,-3.115527,16.547597\H,0,0.
 367026,-4.074128,15.088315\H,0,-0.45581731,-2.46205801,14.93412037\\Ve
 rsion=ES64L-G16RevA.03\State=1-A\HF=-40.4990297\RMSD=2.090e-09\Dipole=
 -0.0037334,-0.013186,0.0078062\Quadrupole=-0.0572639,0.0516884,0.00557
 55,-0.0355637,0.0218834,-0.0692863\PG=C01 [X(C1H4)]\\@


 THAT'S WHAT MAKES US A GREAT COUNTRY.
 THE LITTLE THINGS ARE SERIOUS AND THE BIG ONES ARE NOT.
           WILL ROGERS
 Job cpu time:       0 days  0 hours  0 minutes  7.0 seconds.
 Elapsed time:       0 days  0 hours  0 minutes  1.9 seconds.
 File lengths (MBytes):  RWF=      6 Int=      0 D2E=      0 Chk=      1 Scr=      1
 Normal termination of Gaussian 16 at Fri Sep 22 11:10:22 2023.
