 Entering Gaussian System, Link 0=g16
 Initial command:
 /share/apps/gaussian/g16/l1.exe "/tmp/55476.mgr/Gau-8339.inp" -scrdir="/tmp/55476.mgr/"
 Entering Link 1 = /share/apps/gaussian/g16/l1.exe PID=      8342.
  
 Copyright (c) 1988,1990,1992,1993,1995,1998,2003,2009,2016,
            Gaussian, Inc.  All Rights Reserved.
  
 This is part of the Gaussian(R) 16 program.  It is based on
 the Gaussian(R) 09 system (copyright 2009, Gaussian, Inc.),
 the Gaussian(R) 03 system (copyright 2003, Gaussian, Inc.),
 the Gaussian(R) 98 system (copyright 1998, Gaussian, Inc.),
 the Gaussian(R) 94 system (copyright 1995, Gaussian, Inc.),
 the Gaussian 92(TM) system (copyright 1992, Gaussian, Inc.),
 the Gaussian 90(TM) system (copyright 1990, Gaussian, Inc.),
 the Gaussian 88(TM) system (copyright 1988, Gaussian, Inc.),
 the Gaussian 86(TM) system (copyright 1986, Carnegie Mellon
 University), and the Gaussian 82(TM) system (copyright 1983,
 Carnegie Mellon University). Gaussian is a federally registered
 trademark of Gaussian, Inc.
  
 This software contains proprietary and confidential information,
 including trade secrets, belonging to Gaussian, Inc.
  
 This software is provided under written license and may be
 used, copied, transmitted, or stored only in accord with that
 written license.
  
 The following legend is applicable only to US Government
 contracts under FAR:
  
                    RESTRICTED RIGHTS LEGEND
  
 Use, reproduction and disclosure by the US Government is
 subject to restrictions as set forth in subparagraphs (a)
 and (c) of the Commercial Computer Software - Restricted
 Rights clause in FAR 52.227-19.
  
 Gaussian, Inc.
 340 Quinnipiac St., Bldg. 40, Wallingford CT 06492
  
  
 ---------------------------------------------------------------
 Warning -- This program may not be used in any manner that
 competes with the business of Gaussian, Inc. or will provide
 assistance to any competitor of Gaussian, Inc.  The licensee
 of this program is prohibited from giving any competitor of
 Gaussian, Inc. access to this program.  By using this program,
 the user acknowledges that Gaussian, Inc. is engaged in the
 business of creating and licensing software in the field of
 computational chemistry and represents and warrants to the
 licensee that it is not a competitor of Gaussian, Inc. and that
 it will not use this program in any manner prohibited above.
 ---------------------------------------------------------------
  

 Cite this work as:
 Gaussian 16, Revision A.03,
 M. J. Frisch, G. W. Trucks, H. B. Schlegel, G. E. Scuseria, 
 M. A. Robb, J. R. Cheeseman, G. Scalmani, V. Barone, 
 G. A. Petersson, H. Nakatsuji, X. Li, M. Caricato, A. V. Marenich, 
 J. Bloino, B. G. Janesko, R. Gomperts, B. Mennucci, H. P. Hratchian, 
 J. V. Ortiz, A. F. Izmaylov, J. L. Sonnenberg, D. Williams-Young, 
 F. Ding, F. Lipparini, F. Egidi, J. Goings, B. Peng, A. Petrone, 
 T. Henderson, D. Ranasinghe, V. G. Zakrzewski, J. Gao, N. Rega, 
 G. Zheng, W. Liang, M. Hada, M. Ehara, K. Toyota, R. Fukuda, 
 J. Hasegawa, M. Ishida, T. Nakajima, Y. Honda, O. Kitao, H. Nakai, 
 T. Vreven, K. Throssell, J. A. Montgomery, Jr., J. E. Peralta, 
 F. Ogliaro, M. J. Bearpark, J. J. Heyd, E. N. Brothers, K. N. Kudin, 
 V. N. Staroverov, T. A. Keith, R. Kobayashi, J. Normand, 
 K. Raghavachari, A. P. Rendell, J. C. Burant, S. S. Iyengar, 
 J. Tomasi, M. Cossi, J. M. Millam, M. Klene, C. Adamo, R. Cammi, 
 J. W. Ochterski, R. L. Martin, K. Morokuma, O. Farkas, 
 J. B. Foresman, and D. J. Fox, Gaussian, Inc., Wallingford CT, 2016.
 
 ******************************************
 Gaussian 16:  ES64L-G16RevA.03 25-Dec-2016
                22-Sep-2023 
 ******************************************
 %nprocshared=4
 Will use up to    4 processors via shared memory.
 %mem=4GB
 ----------------
 # 6-31g(d) wb97x
 ----------------
 1/38=1,172=1/1;
 2/12=2,17=6,18=5,40=1/2;
 3/5=1,6=6,7=1,11=2,25=1,30=1,74=-57/1,2,3;
 4//1;
 5/5=2,38=5/2;
 6/7=2,8=2,9=2,10=2,28=1/1;
 99/5=1,9=1/99;
 -------------------
 tmpdir/M1_ref_2.gjf
 -------------------
 Symbolic Z-matrix:
 Charge =  0 Multiplicity = 1
 N                    -6.45102   7.14532   7.61677 
 H                    -5.98098   7.86294   8.1645 
 H                    -7.45908   7.23726   7.67266 
 H                    -6.14393   6.22185   7.91518 
 
                          Input orientation:                          
 ---------------------------------------------------------------------
 Center     Atomic      Atomic             Coordinates (Angstroms)
 Number     Number       Type             X           Y           Z
 ---------------------------------------------------------------------
      1          7           0       -6.451024    7.145323    7.616772
      2          1           0       -5.980977    7.862940    8.164497
      3          1           0       -7.459084    7.237259    7.672663
      4          1           0       -6.143932    6.221852    7.915177
 ---------------------------------------------------------------------
                    Distance matrix (angstroms):
                    1          2          3          4
     1  N    0.000000
     2  H    1.017802   0.000000
     3  H    1.013785   1.678743   0.000000
     4  H    1.017914   1.667898   1.679133   0.000000
 Stoichiometry    H3N
 Framework group  C1[X(H3N)]
 Deg. of freedom     6
 Full point group                 C1      NOp   1
 Largest Abelian subgroup         C1      NOp   1
 Largest concise Abelian subgroup C1      NOp   1
                         Standard orientation:                         
 ---------------------------------------------------------------------
 Center     Atomic      Atomic             Coordinates (Angstroms)
 Number     Number       Type             X           Y           Z
 ---------------------------------------------------------------------
      1          7           0       -0.002478   -0.000060   -0.093773
      2          1           0        0.478638    0.841322    0.216912
      3          1           0       -0.965550   -0.014522    0.222525
      4          1           0        0.504261   -0.826379    0.216971
 ---------------------------------------------------------------------
 Rotational constants (GHZ):         307.2609684         302.6628849         178.6657932
 Standard basis: 6-31G(d) (6D, 7F)
 There are    21 symmetry adapted cartesian basis functions of A   symmetry.
 There are    21 symmetry adapted basis functions of A   symmetry.
    21 basis functions,    40 primitive gaussians,    21 cartesian basis functions
     5 alpha electrons        5 beta electrons
       nuclear repulsion energy        11.8800134027 Hartrees.
 NAtoms=    4 NActive=    4 NUniq=    4 SFac= 1.00D+00 NAtFMM=   60 NAOKFM=F Big=F
 Integral buffers will be    131072 words long.
 Raffenetti 2 integral format.
 Two-electron integral symmetry is turned on.
 One-electron integrals computed using PRISM.
 NBasis=    21 RedAO= T EigKep=  2.33D-02  NBF=    21
 NBsUse=    21 1.00D-06 EigRej= -1.00D+00 NBFU=    21
 ExpMin= 1.61D-01 ExpMax= 4.17D+03 ExpMxC= 6.27D+02 IAcc=3 IRadAn=         5 AccDes= 0.00D+00
 Harris functional with IExCor= 4538 and IRadAn=       5 diagonalized for initial guess.
 HarFok:  IExCor= 4538 AccDes= 0.00D+00 IRadAn=         5 IDoV= 1 UseB2=F ITyADJ=14
 ICtDFT=  3500011 ScaDFX=  1.000000  1.000000  1.000000  1.000000
 FoFCou: FMM=F IPFlag=           0 FMFlag=      100000 FMFlg1=           0
         NFxFlg=           0 DoJE=T BraDBF=F KetDBF=T FulRan=T
         wScrn=  0.000000 ICntrl=       500 IOpCl=  0 I1Cent=   200000004 NGrid=           0
         NMat0=    1 NMatS0=      1 NMatT0=    0 NMatD0=    1 NMtDS0=    0 NMtDT0=    0
 Petite list used in FoFCou.
 Keep R1 ints in memory in canonical form, NReq=3501113.
 Requested convergence on RMS density matrix=1.00D-08 within 128 cycles.
 Requested convergence on MAX density matrix=1.00D-06.
 Requested convergence on             energy=1.00D-06.
 No special actions if energy rises.
 Integral accuracy reduced to 1.0D-05 until final iterations.
 Initial convergence to 1.0D-05 achieved.  Increase integral accuracy.
 SCF Done:  E(RwB97X) =  -56.5280385912     A.U. after   13 cycles
            NFock= 13  Conv=0.51D-08     -V/T= 2.0099

 **********************************************************************

            Population analysis using the SCF density.

 **********************************************************************

 Orbital symmetries:
       Occupied  (A) (A) (A) (A) (A)
       Virtual   (A) (A) (A) (A) (A) (A) (A) (A) (A) (A) (A) (A)
                 (A) (A) (A) (A)
 The electronic state is 1-A.
 Alpha  occ. eigenvalues --  -14.37566  -0.96070  -0.56750  -0.56325  -0.34546
 Alpha virt. eigenvalues --    0.18557   0.27786   0.27941   0.80316   0.80936
 Alpha virt. eigenvalues --    0.83757   0.99717   1.04428   1.04787   1.22206
 Alpha virt. eigenvalues --    1.78880   1.79113   2.13379   2.50708   2.50742
 Alpha virt. eigenvalues --    3.80290
          Condensed to atoms (all electrons):
               1          2          3          4
     1  N    6.942422   0.332539   0.333129   0.332531
     2  H    0.332539   0.406248  -0.025242  -0.026371
     3  H    0.333129  -0.025242   0.402367  -0.025212
     4  H    0.332531  -0.026371  -0.025212   0.406217
 Mulliken charges:
               1
     1  N   -0.940621
     2  H    0.312827
     3  H    0.314959
     4  H    0.312835
 Sum of Mulliken charges =  -0.00000
 Mulliken charges with hydrogens summed into heavy atoms:
               1
     1  N   -0.000000
 Electronic spatial extent (au):  <R**2>=             26.1614
 Charge=             -0.0000 electrons
 Dipole moment (field-independent basis, Debye):
    X=              0.0222    Y=              0.0006    Z=              1.6410  Tot=              1.6412
 Quadrupole moment (field-independent basis, Debye-Ang):
   XX=             -5.8257   YY=             -5.8932   ZZ=             -9.0027
   XY=              0.0003   XZ=             -0.0086   YZ=             -0.0001
 Traceless Quadrupole moment (field-independent basis, Debye-Ang):
   XX=              1.0815   YY=              1.0140   ZZ=             -2.0955
   XY=              0.0003   XZ=             -0.0086   YZ=             -0.0001
 Octapole moment (field-independent basis, Debye-Ang**2):
  XXX=             -0.9631  YYY=              0.0455  ZZZ=              1.5025  XYY=              0.9911
  XXY=             -0.0448  XXZ=              0.8293  XZZ=              0.0036  YZZ=              0.0002
  YYZ=              0.8105  XYZ=              0.0001
 Hexadecapole moment (field-independent basis, Debye-Ang**3):
 XXXX=             -9.1478 YYYY=             -9.1914 ZZZZ=             -9.4552 XXXY=             -0.0007
 XXXZ=             -0.2947 YYYX=              0.0013 YYYZ=              0.0129 ZZZX=             -0.0108
 ZZZY=             -0.0002 XXYY=             -3.0369 XXZZ=             -3.2532 YYZZ=             -3.2593
 XXYZ=             -0.0131 YYXZ=              0.2828 ZZXY=              0.0002
 N-N= 1.188001340273D+01 E-N=-1.555641787396D+02  KE= 5.597638465406D+01
 1\1\GINC-NODE99\SP\RwB97X\6-31G(d)\H3N1\YANZ\22-Sep-2023\0\\# 6-31g(d)
  wb97x\\tmpdir/M1_ref_2.gjf\\0,1\N,0,-6.451024,7.145323,7.616772\H,0,-
 5.98097662,7.8629397,8.16449695\H,0,-7.459084,7.23725852,7.67266319\H,
 0,-6.14393161,6.22185213,7.91517715\\Version=ES64L-G16RevA.03\State=1-
 A\HF=-56.5280386\RMSD=5.090e-09\Dipole=-0.1669656,-0.0773657,0.6189045
 \Quadrupole=0.6325718,0.7224729,-1.3550447,-0.0806739,0.6064722,0.2600
 965\PG=C01 [X(H3N1)]\\@


 "A LITTLE BIT GOES A LONG WAY"
 R.S. MULLIKEN AS QUOTED BY K. RUEDENBERG
 Job cpu time:       0 days  0 hours  0 minutes  6.9 seconds.
 Elapsed time:       0 days  0 hours  0 minutes  1.9 seconds.
 File lengths (MBytes):  RWF=      6 Int=      0 D2E=      0 Chk=      1 Scr=      1
 Normal termination of Gaussian 16 at Fri Sep 22 11:10:19 2023.
