 Entering Gaussian System, Link 0=g16
 Initial command:
 /share/apps/gaussian/g16/l1.exe "/tmp/55477.mgr/Gau-324557.inp" -scrdir="/tmp/55477.mgr/"
 Entering Link 1 = /share/apps/gaussian/g16/l1.exe PID=    324558.
  
 Copyright (c) 1988,1990,1992,1993,1995,1998,2003,2009,2016,
            Gaussian, Inc.  All Rights Reserved.
  
 This is part of the Gaussian(R) 16 program.  It is based on
 the Gaussian(R) 09 system (copyright 2009, Gaussian, Inc.),
 the Gaussian(R) 03 system (copyright 2003, Gaussian, Inc.),
 the Gaussian(R) 98 system (copyright 1998, Gaussian, Inc.),
 the Gaussian(R) 94 system (copyright 1995, Gaussian, Inc.),
 the Gaussian 92(TM) system (copyright 1992, Gaussian, Inc.),
 the Gaussian 90(TM) system (copyright 1990, Gaussian, Inc.),
 the Gaussian 88(TM) system (copyright 1988, Gaussian, Inc.),
 the Gaussian 86(TM) system (copyright 1986, Carnegie Mellon
 University), and the Gaussian 82(TM) system (copyright 1983,
 Carnegie Mellon University). Gaussian is a federally registered
 trademark of Gaussian, Inc.
  
 This software contains proprietary and confidential information,
 including trade secrets, belonging to Gaussian, Inc.
  
 This software is provided under written license and may be
 used, copied, transmitted, or stored only in accord with that
 written license.
  
 The following legend is applicable only to US Government
 contracts under FAR:
  
                    RESTRICTED RIGHTS LEGEND
  
 Use, reproduction and disclosure by the US Government is
 subject to restrictions as set forth in subparagraphs (a)
 and (c) of the Commercial Computer Software - Restricted
 Rights clause in FAR 52.227-19.
  
 Gaussian, Inc.
 340 Quinnipiac St., Bldg. 40, Wallingford CT 06492
  
  
 ---------------------------------------------------------------
 Warning -- This program may not be used in any manner that
 competes with the business of Gaussian, Inc. or will provide
 assistance to any competitor of Gaussian, Inc.  The licensee
 of this program is prohibited from giving any competitor of
 Gaussian, Inc. access to this program.  By using this program,
 the user acknowledges that Gaussian, Inc. is engaged in the
 business of creating and licensing software in the field of
 computational chemistry and represents and warrants to the
 licensee that it is not a competitor of Gaussian, Inc. and that
 it will not use this program in any manner prohibited above.
 ---------------------------------------------------------------
  

 Cite this work as:
 Gaussian 16, Revision A.03,
 M. J. Frisch, G. W. Trucks, H. B. Schlegel, G. E. Scuseria, 
 M. A. Robb, J. R. Cheeseman, G. Scalmani, V. Barone, 
 G. A. Petersson, H. Nakatsuji, X. Li, M. Caricato, A. V. Marenich, 
 J. Bloino, B. G. Janesko, R. Gomperts, B. Mennucci, H. P. Hratchian, 
 J. V. Ortiz, A. F. Izmaylov, J. L. Sonnenberg, D. Williams-Young, 
 F. Ding, F. Lipparini, F. Egidi, J. Goings, B. Peng, A. Petrone, 
 T. Henderson, D. Ranasinghe, V. G. Zakrzewski, J. Gao, N. Rega, 
 G. Zheng, W. Liang, M. Hada, M. Ehara, K. Toyota, R. Fukuda, 
 J. Hasegawa, M. Ishida, T. Nakajima, Y. Honda, O. Kitao, H. Nakai, 
 T. Vreven, K. Throssell, J. A. Montgomery, Jr., J. E. Peralta, 
 F. Ogliaro, M. J. Bearpark, J. J. Heyd, E. N. Brothers, K. N. Kudin, 
 V. N. Staroverov, T. A. Keith, R. Kobayashi, J. Normand, 
 K. Raghavachari, A. P. Rendell, J. C. Burant, S. S. Iyengar, 
 J. Tomasi, M. Cossi, J. M. Millam, M. Klene, C. Adamo, R. Cammi, 
 J. W. Ochterski, R. L. Martin, K. Morokuma, O. Farkas, 
 J. B. Foresman, and D. J. Fox, Gaussian, Inc., Wallingford CT, 2016.
 
 ******************************************
 Gaussian 16:  ES64L-G16RevA.03 25-Dec-2016
                 5-Jun-2019 
 ******************************************
 %nprocshared=2
 Will use up to    2 processors via shared memory.
 %mem=2GB
 ----------------
 # 6-31g(d) wb97x
 ----------------
 1/38=1,172=1/1;
 2/12=2,17=6,18=5,40=1/2;
 3/5=1,6=6,7=1,11=2,25=1,30=1,74=-57/1,2,3;
 4//1;
 5/5=2,38=5/2;
 6/7=2,8=2,9=2,10=2,28=1/1;
 99/5=1,9=1/99;
 ------------------------
 tmpdir/M2_conf_1_165.gjf
 ------------------------
 Symbolic Z-matrix:
 Charge =  0 Multiplicity = 1
 C                     0.        0.        0. 
 C                     1.4796    0.        0. 
 H                    -0.46558   0.       -0.94493 
 C                    -0.74866  -0.01025   1.17467 
 C                     2.18546  -0.45554  -1.11405 
 H                     2.01441   0.33918   0.78833 
 
                          Input orientation:                          
 ---------------------------------------------------------------------
 Center     Atomic      Atomic             Coordinates (Angstroms)
 Number     Number       Type             X           Y           Z
 ---------------------------------------------------------------------
      1          6           0        0.000000    0.000000    0.000000
      2          6           0        1.479600    0.000000    0.000000
      3          1           0       -0.465580    0.000000   -0.944930
      4          6           0       -0.748660   -0.010250    1.174670
      5          6           0        2.185460   -0.455540   -1.114050
      6          1           0        2.014410    0.339180    0.788330
 ---------------------------------------------------------------------
                    Distance matrix (angstroms):
                    1          2          3          4          5
     1  C    0.000000
     2  C    1.479600   0.000000
     3  H    1.053403   2.162549   0.000000
     4  C    1.392999   2.518948   2.138444   0.000000
     5  C    2.494967   1.395300   2.695205   3.747744   0.000000
     6  H    2.189602   1.011202   3.044599   2.811746   2.068789
                    6
     6  H    0.000000
 Stoichiometry    C4H2
 Framework group  C1[X(C4H2)]
 Deg. of freedom    12
 Full point group                 C1      NOp   1
 Largest Abelian subgroup         C1      NOp   1
 Largest concise Abelian subgroup C1      NOp   1
                         Standard orientation:                         
 ---------------------------------------------------------------------
 Center     Atomic      Atomic             Coordinates (Angstroms)
 Number     Number       Type             X           Y           Z
 ---------------------------------------------------------------------
      1          6           0       -0.625401    0.380965    0.096972
      2          6           0        0.626924   -0.406985    0.091341
      3          1           0       -0.525316    1.412965    0.283030
      4          6           0       -1.872323   -0.193314   -0.139323
      5          6           0        1.852825    0.217602   -0.140866
      6          1           0        0.633172   -1.402576    0.268225
 ---------------------------------------------------------------------
 Rotational constants (GHZ):          52.9693642           5.3640114           4.9500765
 Standard basis: 6-31G(d) (6D, 7F)
 There are    64 symmetry adapted cartesian basis functions of A   symmetry.
 There are    64 symmetry adapted basis functions of A   symmetry.
    64 basis functions,   120 primitive gaussians,    64 cartesian basis functions
    13 alpha electrons       13 beta electrons
       nuclear repulsion energy        75.0587490929 Hartrees.
 NAtoms=    6 NActive=    6 NUniq=    6 SFac= 1.00D+00 NAtFMM=   60 NAOKFM=F Big=F
 Integral buffers will be    131072 words long.
 Raffenetti 2 integral format.
 Two-electron integral symmetry is turned on.
 One-electron integrals computed using PRISM.
 NBasis=    64 RedAO= T EigKep=  5.76D-03  NBF=    64
 NBsUse=    64 1.00D-06 EigRej= -1.00D+00 NBFU=    64
 ExpMin= 1.61D-01 ExpMax= 3.05D+03 ExpMxC= 4.57D+02 IAcc=3 IRadAn=         5 AccDes= 0.00D+00
 Harris functional with IExCor= 4538 and IRadAn=       5 diagonalized for initial guess.
 HarFok:  IExCor= 4538 AccDes= 0.00D+00 IRadAn=         5 IDoV= 1 UseB2=F ITyADJ=14
 ICtDFT=  3500011 ScaDFX=  1.000000  1.000000  1.000000  1.000000
 FoFCou: FMM=F IPFlag=           0 FMFlag=      100000 FMFlg1=           0
         NFxFlg=           0 DoJE=T BraDBF=F KetDBF=T FulRan=T
         wScrn=  0.000000 ICntrl=       500 IOpCl=  0 I1Cent=   200000004 NGrid=           0
         NMat0=    1 NMatS0=      1 NMatT0=    0 NMatD0=    1 NMtDS0=    0 NMtDT0=    0
 Petite list used in FoFCou.
 Keep R1 ints in memory in canonical form, NReq=6104720.
 Requested convergence on RMS density matrix=1.00D-08 within 128 cycles.
 Requested convergence on MAX density matrix=1.00D-06.
 Requested convergence on             energy=1.00D-06.
 No special actions if energy rises.
 Integral accuracy reduced to 1.0D-05 until final iterations.
 Initial convergence to 1.0D-05 achieved.  Increase integral accuracy.
 SCF Done:  E(RwB97X) =  -153.250130934     A.U. after   18 cycles
            NFock= 18  Conv=0.22D-08     -V/T= 2.0101

 **********************************************************************

            Population analysis using the SCF density.

 **********************************************************************

 Orbital symmetries:
       Occupied  (A) (A) (A) (A) (A) (A) (A) (A) (A) (A) (A) (A)
                 (A)
       Virtual   (A) (A) (A) (A) (A) (A) (A) (A) (A) (A) (A) (A)
                 (A) (A) (A) (A) (A) (A) (A) (A) (A) (A) (A) (A)
                 (A) (A) (A) (A) (A) (A) (A) (A) (A) (A) (A) (A)
                 (A) (A) (A) (A) (A) (A) (A) (A) (A) (A) (A) (A)
                 (A) (A) (A)
 The electronic state is 1-A.
 Alpha  occ. eigenvalues --  -10.36802 -10.36778 -10.31799 -10.31435  -0.96574
 Alpha  occ. eigenvalues --   -0.86250  -0.68615  -0.67133  -0.56866  -0.45373
 Alpha  occ. eigenvalues --   -0.43118  -0.40407  -0.34609
 Alpha virt. eigenvalues --   -0.02938  -0.00759   0.04065   0.13705   0.22812
 Alpha virt. eigenvalues --    0.26401   0.35550   0.40447   0.43352   0.59757
 Alpha virt. eigenvalues --    0.61177   0.63057   0.66087   0.67054   0.68286
 Alpha virt. eigenvalues --    0.70368   0.72464   0.74540   0.75281   0.78381
 Alpha virt. eigenvalues --    0.79089   0.97148   1.00716   1.03393   1.07595
 Alpha virt. eigenvalues --    1.14712   1.21169   1.47624   1.51508   1.61343
 Alpha virt. eigenvalues --    1.76869   1.77090   1.81784   1.83270   1.85478
 Alpha virt. eigenvalues --    1.94898   2.02979   2.05397   2.18530   2.19844
 Alpha virt. eigenvalues --    2.33181   2.41083   2.51506   2.58082   2.72447
 Alpha virt. eigenvalues --    2.85125   2.96930   4.06528   4.09733   4.25187
 Alpha virt. eigenvalues --    4.49233
          Condensed to atoms (all electrons):
               1          2          3          4          5          6
     1  C    5.142738   0.331383   0.357929   0.486021  -0.016149  -0.023522
     2  C    0.331383   5.127515  -0.028078  -0.015374   0.485677   0.363525
     3  H    0.357929  -0.028078   0.447947  -0.013569  -0.002812   0.003250
     4  C    0.486021  -0.015374  -0.013569   5.507203  -0.000442  -0.003010
     5  C   -0.016149   0.485677  -0.002812  -0.000442   5.515384  -0.016658
     6  H   -0.023522   0.363525   0.003250  -0.003010  -0.016658   0.442865
 Mulliken charges:
               1
     1  C   -0.278402
     2  C   -0.264649
     3  H    0.235333
     4  C    0.039170
     5  C    0.034999
     6  H    0.233549
 Sum of Mulliken charges =  -0.00000
 Mulliken charges with hydrogens summed into heavy atoms:
               1
     1  C   -0.043069
     2  C   -0.031100
     4  C    0.039170
     5  C    0.034999
 Electronic spatial extent (au):  <R**2>=            249.2770
 Charge=             -0.0000 electrons
 Dipole moment (field-independent basis, Debye):
    X=              0.0996    Y=             -0.0322    Z=              0.6410  Tot=              0.6494
 Quadrupole moment (field-independent basis, Debye-Ang):
   XX=            -31.8104   YY=            -19.4178   ZZ=            -25.4349
   XY=             -4.0390   XZ=              0.0345   YZ=              0.0359
 Traceless Quadrupole moment (field-independent basis, Debye-Ang):
   XX=             -6.2560   YY=              6.1366   ZZ=              0.1195
   XY=             -4.0390   XZ=              0.0345   YZ=              0.0359
 Octapole moment (field-independent basis, Debye-Ang**2):
  XXX=              0.8435  YYY=             -0.1281  ZZZ=              1.1287  XYY=              0.0868
  XXY=             -0.5190  XXZ=              3.0969  XZZ=              0.0748  YZZ=             -0.0691
  YYZ=              1.3223  XYZ=             -0.2649
 Hexadecapole moment (field-independent basis, Debye-Ang**3):
 XXXX=           -365.8819 YYYY=            -41.5845 ZZZZ=            -30.0921 XXXY=            -30.3575
 XXXZ=             -0.0202 YYYX=             -6.6345 YYYZ=              0.0798 ZZZX=              0.0741
 ZZZY=              0.0003 XXYY=            -57.0792 XXZZ=            -59.7643 YYZZ=            -13.1683
 XXYZ=              0.0428 YYXZ=              0.1112 ZZXY=             -1.5049
 N-N= 7.505874909290D+01 E-N=-5.045971197575D+02  KE= 1.517163746970D+02
 1\1\GINC-NODE91\SP\RwB97X\6-31G(d)\C4H2\YANZ\05-Jun-2019\0\\# 6-31g(d)
  wb97x\\tmpdir/M2_conf_1_165.gjf\\0,1\C,0,0.,0.,0.\C,0,1.4796,0.,0.\H,
 0,-0.46558,0.,-0.94493\C,0,-0.74866,-0.01025,1.17467\C,0,2.18546,-0.45
 554,-1.11405\H,0,2.01441,0.33918,0.78833\\Version=ES64L-G16RevA.03\Sta
 te=1-A\HF=-153.2501309\RMSD=2.155e-09\Dipole=0.0389658,0.2454933,-0.05
 91754\Quadrupole=0.6688404,0.0507767,-0.7196171,1.0729424,5.3461279,-0
 .1762387\PG=C01 [X(C4H2)]\\@


 MANHOOD BEGINS BY TRYING TO SHAVE FACE,
 AND ENDS BY TRYING TO SAVE FACE.
 Job cpu time:       0 days  0 hours  0 minutes 16.7 seconds.
 Elapsed time:       0 days  0 hours  0 minutes  8.5 seconds.
 File lengths (MBytes):  RWF=      6 Int=      0 D2E=      0 Chk=      1 Scr=      1
 Normal termination of Gaussian 16 at Wed Jun  5 17:02:40 2019.
