 Entering Gaussian System, Link 0=g16
 Initial command:
 /share/apps/gaussian/g16/l1.exe "/tmp/55477.mgr/Gau-322384.inp" -scrdir="/tmp/55477.mgr/"
 Entering Link 1 = /share/apps/gaussian/g16/l1.exe PID=    322385.
  
 Copyright (c) 1988,1990,1992,1993,1995,1998,2003,2009,2016,
            Gaussian, Inc.  All Rights Reserved.
  
 This is part of the Gaussian(R) 16 program.  It is based on
 the Gaussian(R) 09 system (copyright 2009, Gaussian, Inc.),
 the Gaussian(R) 03 system (copyright 2003, Gaussian, Inc.),
 the Gaussian(R) 98 system (copyright 1998, Gaussian, Inc.),
 the Gaussian(R) 94 system (copyright 1995, Gaussian, Inc.),
 the Gaussian 92(TM) system (copyright 1992, Gaussian, Inc.),
 the Gaussian 90(TM) system (copyright 1990, Gaussian, Inc.),
 the Gaussian 88(TM) system (copyright 1988, Gaussian, Inc.),
 the Gaussian 86(TM) system (copyright 1986, Carnegie Mellon
 University), and the Gaussian 82(TM) system (copyright 1983,
 Carnegie Mellon University). Gaussian is a federally registered
 trademark of Gaussian, Inc.
  
 This software contains proprietary and confidential information,
 including trade secrets, belonging to Gaussian, Inc.
  
 This software is provided under written license and may be
 used, copied, transmitted, or stored only in accord with that
 written license.
  
 The following legend is applicable only to US Government
 contracts under FAR:
  
                    RESTRICTED RIGHTS LEGEND
  
 Use, reproduction and disclosure by the US Government is
 subject to restrictions as set forth in subparagraphs (a)
 and (c) of the Commercial Computer Software - Restricted
 Rights clause in FAR 52.227-19.
  
 Gaussian, Inc.
 340 Quinnipiac St., Bldg. 40, Wallingford CT 06492
  
  
 ---------------------------------------------------------------
 Warning -- This program may not be used in any manner that
 competes with the business of Gaussian, Inc. or will provide
 assistance to any competitor of Gaussian, Inc.  The licensee
 of this program is prohibited from giving any competitor of
 Gaussian, Inc. access to this program.  By using this program,
 the user acknowledges that Gaussian, Inc. is engaged in the
 business of creating and licensing software in the field of
 computational chemistry and represents and warrants to the
 licensee that it is not a competitor of Gaussian, Inc. and that
 it will not use this program in any manner prohibited above.
 ---------------------------------------------------------------
  

 Cite this work as:
 Gaussian 16, Revision A.03,
 M. J. Frisch, G. W. Trucks, H. B. Schlegel, G. E. Scuseria, 
 M. A. Robb, J. R. Cheeseman, G. Scalmani, V. Barone, 
 G. A. Petersson, H. Nakatsuji, X. Li, M. Caricato, A. V. Marenich, 
 J. Bloino, B. G. Janesko, R. Gomperts, B. Mennucci, H. P. Hratchian, 
 J. V. Ortiz, A. F. Izmaylov, J. L. Sonnenberg, D. Williams-Young, 
 F. Ding, F. Lipparini, F. Egidi, J. Goings, B. Peng, A. Petrone, 
 T. Henderson, D. Ranasinghe, V. G. Zakrzewski, J. Gao, N. Rega, 
 G. Zheng, W. Liang, M. Hada, M. Ehara, K. Toyota, R. Fukuda, 
 J. Hasegawa, M. Ishida, T. Nakajima, Y. Honda, O. Kitao, H. Nakai, 
 T. Vreven, K. Throssell, J. A. Montgomery, Jr., J. E. Peralta, 
 F. Ogliaro, M. J. Bearpark, J. J. Heyd, E. N. Brothers, K. N. Kudin, 
 V. N. Staroverov, T. A. Keith, R. Kobayashi, J. Normand, 
 K. Raghavachari, A. P. Rendell, J. C. Burant, S. S. Iyengar, 
 J. Tomasi, M. Cossi, J. M. Millam, M. Klene, C. Adamo, R. Cammi, 
 J. W. Ochterski, R. L. Martin, K. Morokuma, O. Farkas, 
 J. B. Foresman, and D. J. Fox, Gaussian, Inc., Wallingford CT, 2016.
 
 ******************************************
 Gaussian 16:  ES64L-G16RevA.03 25-Dec-2016
                 5-Jun-2019 
 ******************************************
 %nprocshared=2
 Will use up to    2 processors via shared memory.
 %mem=2GB
 ----------------
 # 6-31g(d) wb97x
 ----------------
 1/38=1,172=1/1;
 2/12=2,17=6,18=5,40=1/2;
 3/5=1,6=6,7=1,11=2,25=1,30=1,74=-57/1,2,3;
 4//1;
 5/5=2,38=5/2;
 6/7=2,8=2,9=2,10=2,28=1/1;
 99/5=1,9=1/99;
 ------------------------
 tmpdir/M2_conf_0_167.gjf
 ------------------------
 Symbolic Z-matrix:
 Charge =  0 Multiplicity = 1
 N                     0.        0.        0. 
 C                     1.3401    0.        0. 
 C                     2.03735   0.        1.31079 
 O                    -0.52897   0.00126  -1.03192 
 O                     1.97739   0.00898  -1.04977 
 O                     1.46249   0.40161   2.32143 
 H                     2.9845   -0.33918   1.41273 
 
                          Input orientation:                          
 ---------------------------------------------------------------------
 Center     Atomic      Atomic             Coordinates (Angstroms)
 Number     Number       Type             X           Y           Z
 ---------------------------------------------------------------------
      1          7           0        0.000000    0.000000    0.000000
      2          6           0        1.340100    0.000000    0.000000
      3          6           0        2.037350    0.000000    1.310790
      4          8           0       -0.528970    0.001260   -1.031920
      5          8           0        1.977390    0.008980   -1.049770
      6          8           0        1.462490    0.401610    2.321430
      7          1           0        2.984500   -0.339180    1.412730
 ---------------------------------------------------------------------
                    Distance matrix (angstroms):
                    1          2          3          4          5
     1  N    0.000000
     2  C    1.340100   0.000000
     3  C    2.422595   1.484698   0.000000
     4  O    1.159599   2.135014   3.474808   0.000000
     5  O    2.238787   1.228103   2.361338   2.506435   0.000000
     6  O    2.772942   2.359090   1.230101   3.920606   3.432822
     7  H    3.319351   2.194288   1.011201   4.293796   2.683168
                    6          7
     6  O    0.000000
     7  H    1.921203   0.000000
 Stoichiometry    C2HNO3
 Framework group  C1[X(C2HNO3)]
 Deg. of freedom    15
 Full point group                 C1      NOp   1
 Largest Abelian subgroup         C1      NOp   1
 Largest concise Abelian subgroup C1      NOp   1
                         Standard orientation:                         
 ---------------------------------------------------------------------
 Center     Atomic      Atomic             Coordinates (Angstroms)
 Number     Number       Type             X           Y           Z
 ---------------------------------------------------------------------
      1          7           0        0.768857   -0.768367    0.079632
      2          6           0        0.075412    0.377337    0.031012
      3          6           0       -1.403576    0.302233    0.137238
      4          8           0        1.922787   -0.692298   -0.005971
      5          8           0        0.640560    1.458988   -0.106369
      6          8           0       -1.995242   -0.740034   -0.139818
      7          1           0       -1.957853    1.087896    0.450347
 ---------------------------------------------------------------------
 Rotational constants (GHZ):           7.9339597           3.0400110           2.2174204
 Standard basis: 6-31G(d) (6D, 7F)
 There are    92 symmetry adapted cartesian basis functions of A   symmetry.
 There are    92 symmetry adapted basis functions of A   symmetry.
    92 basis functions,   172 primitive gaussians,    92 cartesian basis functions
    22 alpha electrons       22 beta electrons
       nuclear repulsion energy       212.6180316814 Hartrees.
 NAtoms=    7 NActive=    7 NUniq=    7 SFac= 1.00D+00 NAtFMM=   60 NAOKFM=F Big=F
 Integral buffers will be    131072 words long.
 Raffenetti 2 integral format.
 Two-electron integral symmetry is turned on.
 One-electron integrals computed using PRISM.
 NBasis=    92 RedAO= T EigKep=  2.31D-03  NBF=    92
 NBsUse=    92 1.00D-06 EigRej= -1.00D+00 NBFU=    92
 ExpMin= 1.61D-01 ExpMax= 5.48D+03 ExpMxC= 8.25D+02 IAcc=3 IRadAn=         5 AccDes= 0.00D+00
 Harris functional with IExCor= 4538 and IRadAn=       5 diagonalized for initial guess.
 HarFok:  IExCor= 4538 AccDes= 0.00D+00 IRadAn=         5 IDoV= 1 UseB2=F ITyADJ=14
 ICtDFT=  3500011 ScaDFX=  1.000000  1.000000  1.000000  1.000000
 FoFCou: FMM=F IPFlag=           0 FMFlag=      100000 FMFlg1=           0
         NFxFlg=           0 DoJE=T BraDBF=F KetDBF=T FulRan=T
         wScrn=  0.000000 ICntrl=       500 IOpCl=  0 I1Cent=   200000004 NGrid=           0
         NMat0=    1 NMatS0=      1 NMatT0=    0 NMatD0=    1 NMtDS0=    0 NMtDT0=    0
 Petite list used in FoFCou.
 Keep R1 ints in memory in canonical form, NReq=20139963.
 Requested convergence on RMS density matrix=1.00D-08 within 128 cycles.
 Requested convergence on MAX density matrix=1.00D-06.
 Requested convergence on             energy=1.00D-06.
 No special actions if energy rises.
 Integral accuracy reduced to 1.0D-05 until final iterations.
 Rare condition: small coef for last iteration:  0.000D+00
 Rare condition: small coef for last iteration:  0.000D+00
 Problem detected with inexpensive integrals.
 Switching to full accuracy and repeating last cycle.
 Rare condition: small coef for last iteration:  0.000D+00
 EnCoef did   100 forward-backward iterations
 Rare condition: small coef for last iteration:  0.000D+00
 Rare condition: small coef for last iteration:  0.000D+00
 SCF Done:  E(RwB97X) =  -356.907486116     A.U. after   32 cycles
            NFock= 32  Conv=0.44D-08     -V/T= 2.0072

 **********************************************************************

            Population analysis using the SCF density.

 **********************************************************************

 Orbital symmetries:
       Occupied  (A) (A) (A) (A) (A) (A) (A) (A) (A) (A) (A) (A)
                 (A) (A) (A) (A) (A) (A) (A) (A) (A) (A)
       Virtual   (A) (A) (A) (A) (A) (A) (A) (A) (A) (A) (A) (A)
                 (A) (A) (A) (A) (A) (A) (A) (A) (A) (A) (A) (A)
                 (A) (A) (A) (A) (A) (A) (A) (A) (A) (A) (A) (A)
                 (A) (A) (A) (A) (A) (A) (A) (A) (A) (A) (A) (A)
                 (A) (A) (A) (A) (A) (A) (A) (A) (A) (A) (A) (A)
                 (A) (A) (A) (A) (A) (A) (A) (A) (A) (A)
 The electronic state is 1-A.
 Alpha  occ. eigenvalues --  -19.37166 -19.26561 -19.23487 -14.58669 -10.42785
 Alpha  occ. eigenvalues --  -10.40041  -1.40456  -1.21549  -1.19277  -0.98342
 Alpha  occ. eigenvalues --   -0.83268  -0.73431  -0.69506  -0.66970  -0.63220
 Alpha  occ. eigenvalues --   -0.59786  -0.56393  -0.55002  -0.49423  -0.43673
 Alpha  occ. eigenvalues --   -0.39141  -0.33587
 Alpha virt. eigenvalues --   -0.12483  -0.00566   0.14146   0.23101   0.29071
 Alpha virt. eigenvalues --    0.33928   0.38859   0.46154   0.47929   0.59039
 Alpha virt. eigenvalues --    0.62838   0.67169   0.69744   0.70639   0.74946
 Alpha virt. eigenvalues --    0.76251   0.79066   0.80131   0.86007   0.91454
 Alpha virt. eigenvalues --    0.94188   0.97566   1.00172   1.03385   1.05612
 Alpha virt. eigenvalues --    1.07360   1.11193   1.13167   1.18102   1.19402
 Alpha virt. eigenvalues --    1.29565   1.35893   1.44712   1.53539   1.56817
 Alpha virt. eigenvalues --    1.59981   1.61840   1.69016   1.74048   1.80474
 Alpha virt. eigenvalues --    1.81755   1.85611   1.89480   1.94379   1.96202
 Alpha virt. eigenvalues --    1.99835   2.06908   2.08921   2.15319   2.19887
 Alpha virt. eigenvalues --    2.31120   2.41628   2.46331   2.51298   2.54789
 Alpha virt. eigenvalues --    2.66523   2.69834   2.79109   2.82748   2.93344
 Alpha virt. eigenvalues --    2.97781   3.03844   3.15505   3.28190   3.69562
 Alpha virt. eigenvalues --    3.85725   4.01200   4.09350   4.30079   4.53214
          Condensed to atoms (all electrons):
               1          2          3          4          5          6
     1  N    6.784234   0.146700  -0.092569   0.203399  -0.085960   0.021598
     2  C    0.146700   4.824488   0.259979  -0.066627   0.540979  -0.087825
     3  C   -0.092569   0.259979   4.752689   0.003948  -0.047173   0.529235
     4  O    0.203399  -0.066627   0.003948   7.974655  -0.026858   0.000306
     5  O   -0.085960   0.540979  -0.047173  -0.026858   8.063201   0.001949
     6  O    0.021598  -0.087825   0.529235   0.000306   0.001949   7.937550
     7  H    0.004459  -0.087995   0.393692   0.000067   0.003446  -0.046703
               7
     1  N    0.004459
     2  C   -0.087995
     3  C    0.393692
     4  O    0.000067
     5  O    0.003446
     6  O   -0.046703
     7  H    0.527089
 Mulliken charges:
               1
     1  N    0.018139
     2  C    0.470301
     3  C    0.200199
     4  O   -0.088890
     5  O   -0.449583
     6  O   -0.356110
     7  H    0.205945
 Sum of Mulliken charges =  -0.00000
 Mulliken charges with hydrogens summed into heavy atoms:
               1
     1  N    0.018139
     2  C    0.470301
     3  C    0.406144
     4  O   -0.088890
     5  O   -0.449583
     6  O   -0.356110
 Electronic spatial extent (au):  <R**2>=            492.2538
 Charge=             -0.0000 electrons
 Dipole moment (field-independent basis, Debye):
    X=             -0.5308    Y=             -0.3065    Z=              0.8724  Tot=              1.0662
 Quadrupole moment (field-independent basis, Debye-Ang):
   XX=            -34.2111   YY=            -34.3879   ZZ=            -31.0000
   XY=             -6.1075   XZ=             -0.9946   YZ=              0.1426
 Traceless Quadrupole moment (field-independent basis, Debye-Ang):
   XX=             -1.0114   YY=             -1.1882   ZZ=              2.1997
   XY=             -6.1075   XZ=             -0.9946   YZ=              0.1426
 Octapole moment (field-independent basis, Debye-Ang**2):
  XXX=              7.3591  YYY=             -8.1219  ZZZ=             -0.5409  XYY=             -0.0742
  XXY=              7.4345  XXZ=              2.0609  XZZ=             -0.0095  YZZ=             -0.0429
  YYZ=              1.1974  XYZ=             -0.1246
 Hexadecapole moment (field-independent basis, Debye-Ang**3):
 XXXX=           -387.0192 YYYY=           -160.2744 ZZZZ=            -26.9725 XXXY=            -15.9623
 XXXZ=             -4.0901 YYYX=             -9.4449 YYYZ=              0.2474 ZZZX=              0.3091
 ZZZY=              0.1399 XXYY=            -87.2373 XXZZ=            -64.8286 YYZZ=            -30.4527
 XXYZ=              0.3207 YYXZ=             -0.4677 ZZXY=              0.0778
 N-N= 2.126180316814D+02 E-N=-1.262460522783D+03  KE= 3.543406332415D+02
 1\1\GINC-NODE91\SP\RwB97X\6-31G(d)\C2H1N1O3\YANZ\05-Jun-2019\0\\# 6-31
 g(d) wb97x\\tmpdir/M2_conf_0_167.gjf\\0,1\N,0,0.,0.,0.\C,0,1.3401,0.,0
 .\C,0,2.03735,0.,1.31079\O,0,-0.52897,0.00126,-1.03192\O,0,1.97739,0.0
 0898,-1.04977\O,0,1.46249,0.40161,2.32143\H,0,2.9845,-0.33918,1.41273\
 \Version=ES64L-G16RevA.03\State=1-A\HF=-356.9074861\RMSD=4.448e-09\Dip
 ole=-0.0074713,-0.3172344,0.2743485\Quadrupole=3.1384202,1.4753818,-4.
 613802,-0.3104292,2.1839247,-1.2901349\PG=C01 [X(C2H1N1O3)]\\@


 NEVER LOSE YOUR IGNORANCE, IT CAN'T BE REPLACED.
   -- ANDY CAPP
 Job cpu time:       0 days  0 hours  0 minutes 45.8 seconds.
 Elapsed time:       0 days  0 hours  0 minutes 23.3 seconds.
 File lengths (MBytes):  RWF=     10 Int=      0 D2E=      0 Chk=      2 Scr=      1
 Normal termination of Gaussian 16 at Wed Jun  5 17:01:06 2019.
