 Entering Gaussian System, Link 0=g16
 Initial command:
 /share/apps/gaussian/g16/l1.exe "/tmp/55477.mgr/Gau-321592.inp" -scrdir="/tmp/55477.mgr/"
 Entering Link 1 = /share/apps/gaussian/g16/l1.exe PID=    321593.
  
 Copyright (c) 1988,1990,1992,1993,1995,1998,2003,2009,2016,
            Gaussian, Inc.  All Rights Reserved.
  
 This is part of the Gaussian(R) 16 program.  It is based on
 the Gaussian(R) 09 system (copyright 2009, Gaussian, Inc.),
 the Gaussian(R) 03 system (copyright 2003, Gaussian, Inc.),
 the Gaussian(R) 98 system (copyright 1998, Gaussian, Inc.),
 the Gaussian(R) 94 system (copyright 1995, Gaussian, Inc.),
 the Gaussian 92(TM) system (copyright 1992, Gaussian, Inc.),
 the Gaussian 90(TM) system (copyright 1990, Gaussian, Inc.),
 the Gaussian 88(TM) system (copyright 1988, Gaussian, Inc.),
 the Gaussian 86(TM) system (copyright 1986, Carnegie Mellon
 University), and the Gaussian 82(TM) system (copyright 1983,
 Carnegie Mellon University). Gaussian is a federally registered
 trademark of Gaussian, Inc.
  
 This software contains proprietary and confidential information,
 including trade secrets, belonging to Gaussian, Inc.
  
 This software is provided under written license and may be
 used, copied, transmitted, or stored only in accord with that
 written license.
  
 The following legend is applicable only to US Government
 contracts under FAR:
  
                    RESTRICTED RIGHTS LEGEND
  
 Use, reproduction and disclosure by the US Government is
 subject to restrictions as set forth in subparagraphs (a)
 and (c) of the Commercial Computer Software - Restricted
 Rights clause in FAR 52.227-19.
  
 Gaussian, Inc.
 340 Quinnipiac St., Bldg. 40, Wallingford CT 06492
  
  
 ---------------------------------------------------------------
 Warning -- This program may not be used in any manner that
 competes with the business of Gaussian, Inc. or will provide
 assistance to any competitor of Gaussian, Inc.  The licensee
 of this program is prohibited from giving any competitor of
 Gaussian, Inc. access to this program.  By using this program,
 the user acknowledges that Gaussian, Inc. is engaged in the
 business of creating and licensing software in the field of
 computational chemistry and represents and warrants to the
 licensee that it is not a competitor of Gaussian, Inc. and that
 it will not use this program in any manner prohibited above.
 ---------------------------------------------------------------
  

 Cite this work as:
 Gaussian 16, Revision A.03,
 M. J. Frisch, G. W. Trucks, H. B. Schlegel, G. E. Scuseria, 
 M. A. Robb, J. R. Cheeseman, G. Scalmani, V. Barone, 
 G. A. Petersson, H. Nakatsuji, X. Li, M. Caricato, A. V. Marenich, 
 J. Bloino, B. G. Janesko, R. Gomperts, B. Mennucci, H. P. Hratchian, 
 J. V. Ortiz, A. F. Izmaylov, J. L. Sonnenberg, D. Williams-Young, 
 F. Ding, F. Lipparini, F. Egidi, J. Goings, B. Peng, A. Petrone, 
 T. Henderson, D. Ranasinghe, V. G. Zakrzewski, J. Gao, N. Rega, 
 G. Zheng, W. Liang, M. Hada, M. Ehara, K. Toyota, R. Fukuda, 
 J. Hasegawa, M. Ishida, T. Nakajima, Y. Honda, O. Kitao, H. Nakai, 
 T. Vreven, K. Throssell, J. A. Montgomery, Jr., J. E. Peralta, 
 F. Ogliaro, M. J. Bearpark, J. J. Heyd, E. N. Brothers, K. N. Kudin, 
 V. N. Staroverov, T. A. Keith, R. Kobayashi, J. Normand, 
 K. Raghavachari, A. P. Rendell, J. C. Burant, S. S. Iyengar, 
 J. Tomasi, M. Cossi, J. M. Millam, M. Klene, C. Adamo, R. Cammi, 
 J. W. Ochterski, R. L. Martin, K. Morokuma, O. Farkas, 
 J. B. Foresman, and D. J. Fox, Gaussian, Inc., Wallingford CT, 2016.
 
 ******************************************
 Gaussian 16:  ES64L-G16RevA.03 25-Dec-2016
                 5-Jun-2019 
 ******************************************
 %nprocshared=2
 Will use up to    2 processors via shared memory.
 %mem=2GB
 ----------------
 # 6-31g(d) wb97x
 ----------------
 1/38=1,172=1/1;
 2/12=2,17=6,18=5,40=1/2;
 3/5=1,6=6,7=1,11=2,25=1,30=1,74=-57/1,2,3;
 4//1;
 5/5=2,38=5/2;
 6/7=2,8=2,9=2,10=2,28=1/1;
 99/5=1,9=1/99;
 ------------------------
 tmpdir/M2_conf_0_140.gjf
 ------------------------
 Symbolic Z-matrix:
 Charge =  0 Multiplicity = 1
 C                     0.        0.        0. 
 C                     1.4115    0.        0. 
 N                     2.01777   0.        1.26425 
 H                    -0.47334   0.00201  -0.88723 
 H                    -0.56987  -0.00065   0.93104 
 H                     1.92705   0.00106  -0.87002 
 H                     1.39584  -0.03283   2.05785 
 H                     2.93547   0.03035   1.55055 
 
                          Input orientation:                          
 ---------------------------------------------------------------------
 Center     Atomic      Atomic             Coordinates (Angstroms)
 Number     Number       Type             X           Y           Z
 ---------------------------------------------------------------------
      1          6           0        0.000000    0.000000    0.000000
      2          6           0        1.411500    0.000000    0.000000
      3          7           0        2.017770    0.000000    1.264250
      4          1           0       -0.473340    0.002010   -0.887230
      5          1           0       -0.569870   -0.000650    0.931040
      6          1           0        1.927050    0.001060   -0.870020
      7          1           0        1.395840   -0.032830    2.057850
      8          1           0        2.935470    0.030350    1.550550
 ---------------------------------------------------------------------
                    Distance matrix (angstroms):
                    1          2          3          4          5
     1  C    0.000000
     2  C    1.411500   0.000000
     3  N    2.381118   1.402102   0.000000
     4  H    1.005600   2.083219   3.291580   0.000000
     5  H    1.091599   2.189215   2.609006   1.820832   0.000000
     6  H    2.114346   1.011300   2.136197   2.400452   3.078706
     7  H    2.486804   2.058171   1.008799   3.488344   2.265999
     8  H    3.319956   2.174307   0.961801   4.190890   3.559798
                    6          7          8
     6  H    0.000000
     7  H    2.975862   0.000000
     8  H    2.622390   1.622284   0.000000
 Stoichiometry    C2H5N
 Framework group  C1[X(C2H5N)]
 Deg. of freedom    18
 Full point group                 C1      NOp   1
 Largest Abelian subgroup         C1      NOp   1
 Largest concise Abelian subgroup C1      NOp   1
                         Standard orientation:                         
 ---------------------------------------------------------------------
 Center     Atomic      Atomic             Coordinates (Angstroms)
 Number     Number       Type             X           Y           Z
 ---------------------------------------------------------------------
      1          6           0       -1.233501   -0.236494    0.002332
      2          6           0       -0.057189    0.543630   -0.002997
      3          7           0        1.146819   -0.174875    0.000048
      4          1           0       -2.118346    0.241295    0.002386
      5          1           0       -1.193829   -1.327358    0.007762
      6          1           0       -0.108403    1.553622   -0.007554
      7          1           0        1.067115   -1.180154   -0.027085
      8          1           0        2.069873    0.093907    0.028141
 ---------------------------------------------------------------------
 Rotational constants (GHZ):          48.9814249          10.4956860           8.6440906
 Standard basis: 6-31G(d) (6D, 7F)
 There are    55 symmetry adapted cartesian basis functions of A   symmetry.
 There are    55 symmetry adapted basis functions of A   symmetry.
    55 basis functions,   104 primitive gaussians,    55 cartesian basis functions
    12 alpha electrons       12 beta electrons
       nuclear repulsion energy        71.4512525498 Hartrees.
 NAtoms=    8 NActive=    8 NUniq=    8 SFac= 1.00D+00 NAtFMM=   60 NAOKFM=F Big=F
 Integral buffers will be    131072 words long.
 Raffenetti 2 integral format.
 Two-electron integral symmetry is turned on.
 One-electron integrals computed using PRISM.
 NBasis=    55 RedAO= T EigKep=  5.30D-03  NBF=    55
 NBsUse=    55 1.00D-06 EigRej= -1.00D+00 NBFU=    55
 ExpMin= 1.61D-01 ExpMax= 4.17D+03 ExpMxC= 6.27D+02 IAcc=3 IRadAn=         5 AccDes= 0.00D+00
 Harris functional with IExCor= 4538 and IRadAn=       5 diagonalized for initial guess.
 HarFok:  IExCor= 4538 AccDes= 0.00D+00 IRadAn=         5 IDoV= 1 UseB2=F ITyADJ=14
 ICtDFT=  3500011 ScaDFX=  1.000000  1.000000  1.000000  1.000000
 FoFCou: FMM=F IPFlag=           0 FMFlag=      100000 FMFlg1=           0
         NFxFlg=           0 DoJE=T BraDBF=F KetDBF=T FulRan=T
         wScrn=  0.000000 ICntrl=       500 IOpCl=  0 I1Cent=   200000004 NGrid=           0
         NMat0=    1 NMatS0=      1 NMatT0=    0 NMatD0=    1 NMtDS0=    0 NMtDT0=    0
 Petite list used in FoFCou.
 Keep R1 ints in memory in canonical form, NReq=4125101.
 Requested convergence on RMS density matrix=1.00D-08 within 128 cycles.
 Requested convergence on MAX density matrix=1.00D-06.
 Requested convergence on             energy=1.00D-06.
 No special actions if energy rises.
 Integral accuracy reduced to 1.0D-05 until final iterations.
 Initial convergence to 1.0D-05 achieved.  Increase integral accuracy.
 SCF Done:  E(RwB97X) =  -133.873025808     A.U. after   15 cycles
            NFock= 15  Conv=0.72D-08     -V/T= 2.0092

 **********************************************************************

            Population analysis using the SCF density.

 **********************************************************************

 Orbital symmetries:
       Occupied  (A) (A) (A) (A) (A) (A) (A) (A) (A) (A) (A) (A)
       Virtual   (A) (A) (A) (A) (A) (A) (A) (A) (A) (A) (A) (A)
                 (A) (A) (A) (A) (A) (A) (A) (A) (A) (A) (A) (A)
                 (A) (A) (A) (A) (A) (A) (A) (A) (A) (A) (A) (A)
                 (A) (A) (A) (A) (A) (A) (A)
 The electronic state is 1-A.
 Alpha  occ. eigenvalues --  -14.40375 -10.30310 -10.22742  -1.02301  -0.84123
 Alpha  occ. eigenvalues --   -0.70809  -0.64237  -0.56836  -0.49391  -0.48352
 Alpha  occ. eigenvalues --   -0.43325  -0.27406
 Alpha virt. eigenvalues --    0.13316   0.19602   0.23386   0.25497   0.29142
 Alpha virt. eigenvalues --    0.32423   0.42084   0.43970   0.61969   0.68374
 Alpha virt. eigenvalues --    0.68966   0.73751   0.76184   0.77702   0.85548
 Alpha virt. eigenvalues --    0.85849   1.00756   1.03282   1.04333   1.06243
 Alpha virt. eigenvalues --    1.12437   1.18195   1.28234   1.32745   1.48368
 Alpha virt. eigenvalues --    1.50438   1.55905   1.80027   1.83279   2.01677
 Alpha virt. eigenvalues --    2.06312   2.11878   2.33940   2.35209   2.37938
 Alpha virt. eigenvalues --    2.49127   2.50758   2.71533   2.88047   3.06928
 Alpha virt. eigenvalues --    3.89601   4.24404   4.46821
          Condensed to atoms (all electrons):
               1          2          3          4          5          6
     1  C    5.123924   0.655083  -0.069985   0.394658   0.383255  -0.040189
     2  C    0.655083   4.638611   0.337878  -0.029354  -0.036049   0.390972
     3  N   -0.069985   0.337878   6.882833   0.003361  -0.007533  -0.041638
     4  H    0.394658  -0.029354   0.003361   0.514875  -0.031443  -0.003055
     5  H    0.383255  -0.036049  -0.007533  -0.031443   0.548580   0.003644
     6  H   -0.040189   0.390972  -0.041638  -0.003055   0.003644   0.511783
     7  H   -0.004638  -0.028120   0.336337   0.000079   0.006186   0.003475
     8  H    0.003764  -0.019057   0.342032  -0.000145   0.000063  -0.002040
               7          8
     1  C   -0.004638   0.003764
     2  C   -0.028120  -0.019057
     3  N    0.336337   0.342032
     4  H    0.000079  -0.000145
     5  H    0.006186   0.000063
     6  H    0.003475  -0.002040
     7  H    0.380196  -0.030621
     8  H   -0.030621   0.365355
 Mulliken charges:
               1
     1  C   -0.445873
     2  C    0.090035
     3  N   -0.783286
     4  H    0.151023
     5  H    0.133298
     6  H    0.177048
     7  H    0.337106
     8  H    0.340648
 Sum of Mulliken charges =  -0.00000
 Mulliken charges with hydrogens summed into heavy atoms:
               1
     1  C   -0.161552
     2  C    0.267083
     3  N   -0.105531
 Electronic spatial extent (au):  <R**2>=            174.5200
 Charge=             -0.0000 electrons
 Dipole moment (field-independent basis, Debye):
    X=              1.6503    Y=              0.0311    Z=              0.0051  Tot=              1.6506
 Quadrupole moment (field-independent basis, Debye-Ang):
   XX=            -16.0055   YY=            -15.5654   ZZ=            -22.2633
   XY=             -0.7623   XZ=              0.0702   YZ=              0.0591
 Traceless Quadrupole moment (field-independent basis, Debye-Ang):
   XX=              1.9393   YY=              2.3793   ZZ=             -4.3186
   XY=             -0.7623   XZ=              0.0702   YZ=              0.0591
 Octapole moment (field-independent basis, Debye-Ang**2):
  XXX=             12.5750  YYY=             -1.1589  ZZZ=              0.0056  XYY=              2.5623
  XXY=              0.2306  XXZ=              0.2305  XZZ=              1.8701  YZZ=              0.2167
  YYZ=             -0.0742  XYZ=              0.1016
 Hexadecapole moment (field-independent basis, Debye-Ang**3):
 XXXX=           -125.7818 YYYY=            -42.7575 ZZZZ=            -22.5544 XXXY=             -2.9512
 XXXZ=              0.4817 YYYX=             -3.2657 YYYZ=              0.0843 ZZZX=              0.0618
 ZZZY=              0.0437 XXYY=            -31.3659 XXZZ=            -33.2079 YYZZ=            -12.7582
 XXYZ=              0.1031 YYXZ=             -0.0655 ZZXY=             -0.3620
 N-N= 7.145125254979D+01 E-N=-4.535931859230D+02  KE= 1.326497081686D+02
 1\1\GINC-NODE91\SP\RwB97X\6-31G(d)\C2H5N1\YANZ\05-Jun-2019\0\\# 6-31g(
 d) wb97x\\tmpdir/M2_conf_0_140.gjf\\0,1\C,0,0.,0.,0.\C,0,1.4115,0.,0.\
 N,0,2.01777,0.,1.26425\H,0,-0.47334,0.00201,-0.88723\H,0,-0.56987,-0.0
 0065,0.93104\H,0,1.92705,0.00106,-0.87002\H,0,1.39584,-0.03283,2.05785
 \H,0,2.93547,0.03035,1.55055\\Version=ES64L-G16RevA.03\State=1-A\HF=-1
 33.8730258\RMSD=7.208e-09\Dipole=0.5478485,0.0026158,0.3486807\Quadrup
 ole=1.0190554,-3.2100228,2.1909674,0.0835003,0.0701842,-0.0303027\PG=C
 01 [X(C2H5N1)]\\@


      THE ONE-EYED VIEW OF OUR UNIVERSE SAYS YOU MUST NOT LOOK
      FAR AFIELD FOR PROBLEMS.  SUCH PROBLEMS MAY NEVER ARRIVE. 
      INSTEAD, TEND TO THE WOLF WITHIN YOUR FENCES.
      THE PACKS RANGING OUTSIDE MAY NOT EVEN EXIST.

                              -- THE AZHAR BOOK SHAMRA I:4
                                 CHILDREN OF DUNE, BY FRANK HERBERT
 Job cpu time:       0 days  0 hours  0 minutes 15.2 seconds.
 Elapsed time:       0 days  0 hours  0 minutes  7.7 seconds.
 File lengths (MBytes):  RWF=      6 Int=      0 D2E=      0 Chk=      1 Scr=      1
 Normal termination of Gaussian 16 at Wed Jun  5 17:00:16 2019.
