 Entering Gaussian System, Link 0=g16
 Initial command:
 /share/apps/gaussian/g16/l1.exe "/tmp/55477.mgr/Gau-325822.inp" -scrdir="/tmp/55477.mgr/"
 Entering Link 1 = /share/apps/gaussian/g16/l1.exe PID=    325823.
  
 Copyright (c) 1988,1990,1992,1993,1995,1998,2003,2009,2016,
            Gaussian, Inc.  All Rights Reserved.
  
 This is part of the Gaussian(R) 16 program.  It is based on
 the Gaussian(R) 09 system (copyright 2009, Gaussian, Inc.),
 the Gaussian(R) 03 system (copyright 2003, Gaussian, Inc.),
 the Gaussian(R) 98 system (copyright 1998, Gaussian, Inc.),
 the Gaussian(R) 94 system (copyright 1995, Gaussian, Inc.),
 the Gaussian 92(TM) system (copyright 1992, Gaussian, Inc.),
 the Gaussian 90(TM) system (copyright 1990, Gaussian, Inc.),
 the Gaussian 88(TM) system (copyright 1988, Gaussian, Inc.),
 the Gaussian 86(TM) system (copyright 1986, Carnegie Mellon
 University), and the Gaussian 82(TM) system (copyright 1983,
 Carnegie Mellon University). Gaussian is a federally registered
 trademark of Gaussian, Inc.
  
 This software contains proprietary and confidential information,
 including trade secrets, belonging to Gaussian, Inc.
  
 This software is provided under written license and may be
 used, copied, transmitted, or stored only in accord with that
 written license.
  
 The following legend is applicable only to US Government
 contracts under FAR:
  
                    RESTRICTED RIGHTS LEGEND
  
 Use, reproduction and disclosure by the US Government is
 subject to restrictions as set forth in subparagraphs (a)
 and (c) of the Commercial Computer Software - Restricted
 Rights clause in FAR 52.227-19.
  
 Gaussian, Inc.
 340 Quinnipiac St., Bldg. 40, Wallingford CT 06492
  
  
 ---------------------------------------------------------------
 Warning -- This program may not be used in any manner that
 competes with the business of Gaussian, Inc. or will provide
 assistance to any competitor of Gaussian, Inc.  The licensee
 of this program is prohibited from giving any competitor of
 Gaussian, Inc. access to this program.  By using this program,
 the user acknowledges that Gaussian, Inc. is engaged in the
 business of creating and licensing software in the field of
 computational chemistry and represents and warrants to the
 licensee that it is not a competitor of Gaussian, Inc. and that
 it will not use this program in any manner prohibited above.
 ---------------------------------------------------------------
  

 Cite this work as:
 Gaussian 16, Revision A.03,
 M. J. Frisch, G. W. Trucks, H. B. Schlegel, G. E. Scuseria, 
 M. A. Robb, J. R. Cheeseman, G. Scalmani, V. Barone, 
 G. A. Petersson, H. Nakatsuji, X. Li, M. Caricato, A. V. Marenich, 
 J. Bloino, B. G. Janesko, R. Gomperts, B. Mennucci, H. P. Hratchian, 
 J. V. Ortiz, A. F. Izmaylov, J. L. Sonnenberg, D. Williams-Young, 
 F. Ding, F. Lipparini, F. Egidi, J. Goings, B. Peng, A. Petrone, 
 T. Henderson, D. Ranasinghe, V. G. Zakrzewski, J. Gao, N. Rega, 
 G. Zheng, W. Liang, M. Hada, M. Ehara, K. Toyota, R. Fukuda, 
 J. Hasegawa, M. Ishida, T. Nakajima, Y. Honda, O. Kitao, H. Nakai, 
 T. Vreven, K. Throssell, J. A. Montgomery, Jr., J. E. Peralta, 
 F. Ogliaro, M. J. Bearpark, J. J. Heyd, E. N. Brothers, K. N. Kudin, 
 V. N. Staroverov, T. A. Keith, R. Kobayashi, J. Normand, 
 K. Raghavachari, A. P. Rendell, J. C. Burant, S. S. Iyengar, 
 J. Tomasi, M. Cossi, J. M. Millam, M. Klene, C. Adamo, R. Cammi, 
 J. W. Ochterski, R. L. Martin, K. Morokuma, O. Farkas, 
 J. B. Foresman, and D. J. Fox, Gaussian, Inc., Wallingford CT, 2016.
 
 ******************************************
 Gaussian 16:  ES64L-G16RevA.03 25-Dec-2016
                 5-Jun-2019 
 ******************************************
 %nprocshared=2
 Will use up to    2 processors via shared memory.
 %mem=2GB
 ----------------
 # 6-31g(d) wb97x
 ----------------
 1/38=1,172=1/1;
 2/12=2,17=6,18=5,40=1/2;
 3/5=1,6=6,7=1,11=2,25=1,30=1,74=-57/1,2,3;
 4//1;
 5/5=2,38=5/2;
 6/7=2,8=2,9=2,10=2,28=1/1;
 99/5=1,9=1/99;
 -----------------------
 tmpdir/M2_conf_2_44.gjf
 -----------------------
 Symbolic Z-matrix:
 Charge =  0 Multiplicity = 1
 C                     0.        0.        0. 
 N                     1.4446    0.        0. 
 H                    -0.38255   0.       -1.03251 
 H                    -0.35503   0.89425   0.52382 
 H                    -0.39552  -0.88625   0.53293 
 H                     1.79185  -0.81316  -0.50792 
 H                     1.82317   0.04657   0.94201 
 
                          Input orientation:                          
 ---------------------------------------------------------------------
 Center     Atomic      Atomic             Coordinates (Angstroms)
 Number     Number       Type             X           Y           Z
 ---------------------------------------------------------------------
      1          6           0        0.000000    0.000000    0.000000
      2          7           0        1.444600    0.000000    0.000000
      3          1           0       -0.382550    0.000000   -1.032510
      4          1           0       -0.355030    0.894250    0.523820
      5          1           0       -0.395520   -0.886250    0.532930
      6          1           0        1.791850   -0.813160   -0.507920
      7          1           0        1.823170    0.046570    0.942010
 ---------------------------------------------------------------------
                    Distance matrix (angstroms):
                    1          2          3          4          5
     1  C    0.000000
     2  N    1.444600   0.000000
     3  H    1.101100   2.098703   0.000000
     4  H    1.095498   2.076713   1.795161   0.000000
     5  H    1.107199   2.110804   1.798947   1.780984   0.000000
     6  H    2.032225   1.019703   2.380008   2.930671   2.423489
     7  H    2.052681   1.016301   2.960760   2.374447   2.441329
                    6          7
     6  H    0.000000
     7  H    1.685946   0.000000
 Stoichiometry    CH5N
 Framework group  C1[X(CH5N)]
 Deg. of freedom    15
 Full point group                 C1      NOp   1
 Largest Abelian subgroup         C1      NOp   1
 Largest concise Abelian subgroup C1      NOp   1
                         Standard orientation:                         
 ---------------------------------------------------------------------
 Center     Atomic      Atomic             Coordinates (Angstroms)
 Number     Number       Type             X           Y           Z
 ---------------------------------------------------------------------
      1          6           0        0.701314   -0.000103    0.011236
      2          7           0       -0.737913    0.001860   -0.113232
      3          1           0        1.128337    0.892172   -0.472414
      4          1           0        1.097754   -0.902719   -0.466505
      5          1           0        1.006249   -0.016281    1.075493
      6          1           0       -1.121323    0.849984    0.303274
      7          1           0       -1.153510   -0.835559    0.285359
 ---------------------------------------------------------------------
 Rotational constants (GHZ):         101.4017033          23.4263064          22.2631227
 Standard basis: 6-31G(d) (6D, 7F)
 There are    40 symmetry adapted cartesian basis functions of A   symmetry.
 There are    40 symmetry adapted basis functions of A   symmetry.
    40 basis functions,    76 primitive gaussians,    40 cartesian basis functions
     9 alpha electrons        9 beta electrons
       nuclear repulsion energy        42.1644675708 Hartrees.
 NAtoms=    7 NActive=    7 NUniq=    7 SFac= 1.00D+00 NAtFMM=   60 NAOKFM=F Big=F
 Integral buffers will be    131072 words long.
 Raffenetti 2 integral format.
 Two-electron integral symmetry is turned on.
 One-electron integrals computed using PRISM.
 NBasis=    40 RedAO= T EigKep=  8.84D-03  NBF=    40
 NBsUse=    40 1.00D-06 EigRej= -1.00D+00 NBFU=    40
 ExpMin= 1.61D-01 ExpMax= 4.17D+03 ExpMxC= 6.27D+02 IAcc=3 IRadAn=         5 AccDes= 0.00D+00
 Harris functional with IExCor= 4538 and IRadAn=       5 diagonalized for initial guess.
 HarFok:  IExCor= 4538 AccDes= 0.00D+00 IRadAn=         5 IDoV= 1 UseB2=F ITyADJ=14
 ICtDFT=  3500011 ScaDFX=  1.000000  1.000000  1.000000  1.000000
 FoFCou: FMM=F IPFlag=           0 FMFlag=      100000 FMFlg1=           0
         NFxFlg=           0 DoJE=T BraDBF=F KetDBF=T FulRan=T
         wScrn=  0.000000 ICntrl=       500 IOpCl=  0 I1Cent=   200000004 NGrid=           0
         NMat0=    1 NMatS0=      1 NMatT0=    0 NMatD0=    1 NMtDS0=    0 NMtDT0=    0
 Petite list used in FoFCou.
 Keep R1 ints in memory in canonical form, NReq=2399831.
 Requested convergence on RMS density matrix=1.00D-08 within 128 cycles.
 Requested convergence on MAX density matrix=1.00D-06.
 Requested convergence on             energy=1.00D-06.
 No special actions if energy rises.
 Integral accuracy reduced to 1.0D-05 until final iterations.
 Initial convergence to 1.0D-05 achieved.  Increase integral accuracy.
 SCF Done:  E(RwB97X) =  -95.8211558317     A.U. after   13 cycles
            NFock= 13  Conv=0.10D-07     -V/T= 2.0099

 **********************************************************************

            Population analysis using the SCF density.

 **********************************************************************

 Orbital symmetries:
       Occupied  (A) (A) (A) (A) (A) (A) (A) (A) (A)
       Virtual   (A) (A) (A) (A) (A) (A) (A) (A) (A) (A) (A) (A)
                 (A) (A) (A) (A) (A) (A) (A) (A) (A) (A) (A) (A)
                 (A) (A) (A) (A) (A) (A) (A)
 The electronic state is 1-A.
 Alpha  occ. eigenvalues --  -14.37911 -10.27934  -0.99646  -0.77277  -0.60302
 Alpha  occ. eigenvalues --   -0.53655  -0.50673  -0.46956  -0.32047
 Alpha virt. eigenvalues --    0.18421   0.24329   0.25401   0.27612   0.29105
 Alpha virt. eigenvalues --    0.34534   0.66164   0.67876   0.69810   0.84828
 Alpha virt. eigenvalues --    0.87406   0.89523   0.97798   1.02560   1.04680
 Alpha virt. eigenvalues --    1.05431   1.08665   1.15775   1.48350   1.62550
 Alpha virt. eigenvalues --    1.65064   2.06336   2.14679   2.16972   2.34108
 Alpha virt. eigenvalues --    2.42906   2.45838   2.55887   2.77574   3.89212
 Alpha virt. eigenvalues --    4.37249
          Condensed to atoms (all electrons):
               1          2          3          4          5          6
     1  C    4.925702   0.307313   0.390978   0.391360   0.388648  -0.040038
     2  N    0.307313   6.901813  -0.037056  -0.038922  -0.058214   0.332893
     3  H    0.390978  -0.037056   0.542307  -0.021413  -0.038069  -0.003497
     4  H    0.391360  -0.038922  -0.021413   0.544556  -0.039075   0.005192
     5  H    0.388648  -0.058214  -0.038069  -0.039075   0.626342  -0.003282
     6  H   -0.040038   0.332893  -0.003497   0.005192  -0.003282   0.428833
     7  H   -0.037317   0.333079   0.004766  -0.003542  -0.002983  -0.027406
               7
     1  C   -0.037317
     2  N    0.333079
     3  H    0.004766
     4  H   -0.003542
     5  H   -0.002983
     6  H   -0.027406
     7  H    0.423618
 Mulliken charges:
               1
     1  C   -0.326646
     2  N   -0.740906
     3  H    0.161984
     4  H    0.161844
     5  H    0.126634
     6  H    0.307306
     7  H    0.309785
 Sum of Mulliken charges =  -0.00000
 Mulliken charges with hydrogens summed into heavy atoms:
               1
     1  C    0.123816
     2  N   -0.123816
 Electronic spatial extent (au):  <R**2>=             93.8293
 Charge=             -0.0000 electrons
 Dipole moment (field-independent basis, Debye):
    X=              0.1389    Y=             -0.0154    Z=              1.3437  Tot=              1.3510
 Quadrupole moment (field-independent basis, Debye-Ang):
   XX=            -13.6438   YY=            -12.1053   ZZ=            -15.2719
   XY=              0.0776   XZ=             -2.0447   YZ=              0.0223
 Traceless Quadrupole moment (field-independent basis, Debye-Ang):
   XX=              0.0299   YY=              1.5684   ZZ=             -1.5982
   XY=              0.0776   XZ=             -2.0447   YZ=              0.0223
 Octapole moment (field-independent basis, Debye-Ang**2):
  XXX=             -3.3411  YYY=              0.0027  ZZZ=              1.5261  XYY=             -2.1774
  XXY=             -0.0791  XXZ=              1.8350  XZZ=              0.3995  YZZ=             -0.0053
  YYZ=              0.2945  XYZ=             -0.0637
 Hexadecapole moment (field-independent basis, Debye-Ang**3):
 XXXX=            -71.8420 YYYY=            -22.4819 ZZZZ=            -23.3430 XXXY=              0.3146
 XXXZ=             -3.7502 YYYX=              0.0557 YYYZ=              0.0559 ZZZX=             -1.5355
 ZZZY=              0.0079 XXYY=            -13.3694 XXZZ=            -16.7957 YYZZ=             -7.6970
 XXYZ=             -0.0334 YYXZ=             -1.8729 ZZXY=              0.0106
 N-N= 4.216446757079D+01 E-N=-3.067705617171D+02  KE= 9.488303748432D+01
 1\1\GINC-NODE91\SP\RwB97X\6-31G(d)\C1H5N1\YANZ\05-Jun-2019\0\\# 6-31g(
 d) wb97x\\tmpdir/M2_conf_2_44.gjf\\0,1\C,0,0.,0.,0.\N,0,1.4446,0.,0.\H
 ,0,-0.38255,0.,-1.03251\H,0,-0.35503,0.89425,0.52382\H,0,-0.39552,-0.8
 8625,0.53293\H,0,1.79185,-0.81316,-0.50792\H,0,1.82317,0.04657,0.94201
 \\Version=ES64L-G16RevA.03\State=1-A\HF=-95.8211558\RMSD=9.982e-09\Dip
 ole=-0.100003,-0.4483861,0.2673158\Quadrupole=-0.2479175,-0.3842049,0.
 6321224,-1.3562171,0.8537416,0.9100039\PG=C01 [X(C1H5N1)]\\@


 Everywhere is walking distance if you have the time.
                                    -- Steven Wright
 Job cpu time:       0 days  0 hours  0 minutes 10.1 seconds.
 Elapsed time:       0 days  0 hours  0 minutes  5.2 seconds.
 File lengths (MBytes):  RWF=      6 Int=      0 D2E=      0 Chk=      1 Scr=      1
 Normal termination of Gaussian 16 at Wed Jun  5 17:03:47 2019.
