 Entering Gaussian System, Link 0=g16
 Initial command:
 /share/apps/gaussian/g16/l1.exe "/tmp/55477.mgr/Gau-323037.inp" -scrdir="/tmp/55477.mgr/"
 Entering Link 1 = /share/apps/gaussian/g16/l1.exe PID=    323038.
  
 Copyright (c) 1988,1990,1992,1993,1995,1998,2003,2009,2016,
            Gaussian, Inc.  All Rights Reserved.
  
 This is part of the Gaussian(R) 16 program.  It is based on
 the Gaussian(R) 09 system (copyright 2009, Gaussian, Inc.),
 the Gaussian(R) 03 system (copyright 2003, Gaussian, Inc.),
 the Gaussian(R) 98 system (copyright 1998, Gaussian, Inc.),
 the Gaussian(R) 94 system (copyright 1995, Gaussian, Inc.),
 the Gaussian 92(TM) system (copyright 1992, Gaussian, Inc.),
 the Gaussian 90(TM) system (copyright 1990, Gaussian, Inc.),
 the Gaussian 88(TM) system (copyright 1988, Gaussian, Inc.),
 the Gaussian 86(TM) system (copyright 1986, Carnegie Mellon
 University), and the Gaussian 82(TM) system (copyright 1983,
 Carnegie Mellon University). Gaussian is a federally registered
 trademark of Gaussian, Inc.
  
 This software contains proprietary and confidential information,
 including trade secrets, belonging to Gaussian, Inc.
  
 This software is provided under written license and may be
 used, copied, transmitted, or stored only in accord with that
 written license.
  
 The following legend is applicable only to US Government
 contracts under FAR:
  
                    RESTRICTED RIGHTS LEGEND
  
 Use, reproduction and disclosure by the US Government is
 subject to restrictions as set forth in subparagraphs (a)
 and (c) of the Commercial Computer Software - Restricted
 Rights clause in FAR 52.227-19.
  
 Gaussian, Inc.
 340 Quinnipiac St., Bldg. 40, Wallingford CT 06492
  
  
 ---------------------------------------------------------------
 Warning -- This program may not be used in any manner that
 competes with the business of Gaussian, Inc. or will provide
 assistance to any competitor of Gaussian, Inc.  The licensee
 of this program is prohibited from giving any competitor of
 Gaussian, Inc. access to this program.  By using this program,
 the user acknowledges that Gaussian, Inc. is engaged in the
 business of creating and licensing software in the field of
 computational chemistry and represents and warrants to the
 licensee that it is not a competitor of Gaussian, Inc. and that
 it will not use this program in any manner prohibited above.
 ---------------------------------------------------------------
  

 Cite this work as:
 Gaussian 16, Revision A.03,
 M. J. Frisch, G. W. Trucks, H. B. Schlegel, G. E. Scuseria, 
 M. A. Robb, J. R. Cheeseman, G. Scalmani, V. Barone, 
 G. A. Petersson, H. Nakatsuji, X. Li, M. Caricato, A. V. Marenich, 
 J. Bloino, B. G. Janesko, R. Gomperts, B. Mennucci, H. P. Hratchian, 
 J. V. Ortiz, A. F. Izmaylov, J. L. Sonnenberg, D. Williams-Young, 
 F. Ding, F. Lipparini, F. Egidi, J. Goings, B. Peng, A. Petrone, 
 T. Henderson, D. Ranasinghe, V. G. Zakrzewski, J. Gao, N. Rega, 
 G. Zheng, W. Liang, M. Hada, M. Ehara, K. Toyota, R. Fukuda, 
 J. Hasegawa, M. Ishida, T. Nakajima, Y. Honda, O. Kitao, H. Nakai, 
 T. Vreven, K. Throssell, J. A. Montgomery, Jr., J. E. Peralta, 
 F. Ogliaro, M. J. Bearpark, J. J. Heyd, E. N. Brothers, K. N. Kudin, 
 V. N. Staroverov, T. A. Keith, R. Kobayashi, J. Normand, 
 K. Raghavachari, A. P. Rendell, J. C. Burant, S. S. Iyengar, 
 J. Tomasi, M. Cossi, J. M. Millam, M. Klene, C. Adamo, R. Cammi, 
 J. W. Ochterski, R. L. Martin, K. Morokuma, O. Farkas, 
 J. B. Foresman, and D. J. Fox, Gaussian, Inc., Wallingford CT, 2016.
 
 ******************************************
 Gaussian 16:  ES64L-G16RevA.03 25-Dec-2016
                 5-Jun-2019 
 ******************************************
 %nprocshared=2
 Will use up to    2 processors via shared memory.
 %mem=2GB
 ----------------
 # 6-31g(d) wb97x
 ----------------
 1/38=1,172=1/1;
 2/12=2,17=6,18=5,40=1/2;
 3/5=1,6=6,7=1,11=2,25=1,30=1,74=-57/1,2,3;
 4//1;
 5/5=2,38=5/2;
 6/7=2,8=2,9=2,10=2,28=1/1;
 99/5=1,9=1/99;
 -----------------------
 tmpdir/M2_conf_1_37.gjf
 -----------------------
 Symbolic Z-matrix:
 Charge =  0 Multiplicity = 1
 N                     0.        0.        0. 
 C                     1.4538    0.        0. 
 H                     1.80266   0.        1.05238 
 H                    -0.34861   0.85562   0.42697 
 H                    -0.37107  -0.82267   0.46185 
 H                     1.80608  -0.91193  -0.49658 
 H                     1.83941   0.88154  -0.53535 
 
                          Input orientation:                          
 ---------------------------------------------------------------------
 Center     Atomic      Atomic             Coordinates (Angstroms)
 Number     Number       Type             X           Y           Z
 ---------------------------------------------------------------------
      1          7           0        0.000000    0.000000    0.000000
      2          6           0        1.453800    0.000000    0.000000
      3          1           0        1.802660    0.000000    1.052380
      4          1           0       -0.348610    0.855620    0.426970
      5          1           0       -0.371070   -0.822670    0.461850
      6          1           0        1.806080   -0.911930   -0.496580
      7          1           0        1.839410    0.881540   -0.535350
 ---------------------------------------------------------------------
                    Distance matrix (angstroms):
                    1          2          3          4          5
     1  N    0.000000
     2  C    1.453800   0.000000
     3  H    2.087364   1.108696   0.000000
     4  H    1.017801   2.040360   2.398163   0.000000
     5  H    1.013797   2.054323   2.398044   1.678803   0.000000
     6  H    2.083299   1.096499   1.797472   2.935961   2.380449
     7  H    2.108825   1.101094   1.816411   2.390432   2.963944
                    6          7
     6  H    0.000000
     7  H    1.794199   0.000000
 Stoichiometry    CH5N
 Framework group  C1[X(CH5N)]
 Deg. of freedom    15
 Full point group                 C1      NOp   1
 Largest Abelian subgroup         C1      NOp   1
 Largest concise Abelian subgroup C1      NOp   1
                         Standard orientation:                         
 ---------------------------------------------------------------------
 Center     Atomic      Atomic             Coordinates (Angstroms)
 Number     Number       Type             X           Y           Z
 ---------------------------------------------------------------------
      1          7           0       -0.739704    0.002300   -0.117606
      2          6           0        0.708185    0.000676    0.013355
      3          1           0        0.960836   -0.033204    1.092348
      4          1           0       -1.126856    0.844288    0.303212
      5          1           0       -1.149421   -0.834236    0.282548
      6          1           0        1.105361   -0.895381   -0.478215
      7          1           0        1.138899    0.898376   -0.456782
 ---------------------------------------------------------------------
 Rotational constants (GHZ):         100.7916289          23.2595660          22.1673155
 Standard basis: 6-31G(d) (6D, 7F)
 There are    40 symmetry adapted cartesian basis functions of A   symmetry.
 There are    40 symmetry adapted basis functions of A   symmetry.
    40 basis functions,    76 primitive gaussians,    40 cartesian basis functions
     9 alpha electrons        9 beta electrons
       nuclear repulsion energy        42.0746400380 Hartrees.
 NAtoms=    7 NActive=    7 NUniq=    7 SFac= 1.00D+00 NAtFMM=   60 NAOKFM=F Big=F
 Integral buffers will be    131072 words long.
 Raffenetti 2 integral format.
 Two-electron integral symmetry is turned on.
 One-electron integrals computed using PRISM.
 NBasis=    40 RedAO= T EigKep=  8.91D-03  NBF=    40
 NBsUse=    40 1.00D-06 EigRej= -1.00D+00 NBFU=    40
 ExpMin= 1.61D-01 ExpMax= 4.17D+03 ExpMxC= 6.27D+02 IAcc=3 IRadAn=         5 AccDes= 0.00D+00
 Harris functional with IExCor= 4538 and IRadAn=       5 diagonalized for initial guess.
 HarFok:  IExCor= 4538 AccDes= 0.00D+00 IRadAn=         5 IDoV= 1 UseB2=F ITyADJ=14
 ICtDFT=  3500011 ScaDFX=  1.000000  1.000000  1.000000  1.000000
 FoFCou: FMM=F IPFlag=           0 FMFlag=      100000 FMFlg1=           0
         NFxFlg=           0 DoJE=T BraDBF=F KetDBF=T FulRan=T
         wScrn=  0.000000 ICntrl=       500 IOpCl=  0 I1Cent=   200000004 NGrid=           0
         NMat0=    1 NMatS0=      1 NMatT0=    0 NMatD0=    1 NMtDS0=    0 NMtDT0=    0
 Petite list used in FoFCou.
 Keep R1 ints in memory in canonical form, NReq=2399831.
 Requested convergence on RMS density matrix=1.00D-08 within 128 cycles.
 Requested convergence on MAX density matrix=1.00D-06.
 Requested convergence on             energy=1.00D-06.
 No special actions if energy rises.
 Integral accuracy reduced to 1.0D-05 until final iterations.
 Initial convergence to 1.0D-05 achieved.  Increase integral accuracy.
 SCF Done:  E(RwB97X) =  -95.8203335380     A.U. after   13 cycles
            NFock= 13  Conv=0.95D-08     -V/T= 2.0100

 **********************************************************************

            Population analysis using the SCF density.

 **********************************************************************

 Orbital symmetries:
       Occupied  (A) (A) (A) (A) (A) (A) (A) (A) (A)
       Virtual   (A) (A) (A) (A) (A) (A) (A) (A) (A) (A) (A) (A)
                 (A) (A) (A) (A) (A) (A) (A) (A) (A) (A) (A) (A)
                 (A) (A) (A) (A) (A) (A) (A)
 The electronic state is 1-A.
 Alpha  occ. eigenvalues --  -14.37782 -10.28057  -0.99473  -0.77272  -0.60147
 Alpha  occ. eigenvalues --   -0.53398  -0.50859  -0.47034  -0.31967
 Alpha virt. eigenvalues --    0.18368   0.24349   0.25501   0.27492   0.29041
 Alpha virt. eigenvalues --    0.34069   0.66055   0.67718   0.69946   0.84843
 Alpha virt. eigenvalues --    0.87345   0.89099   0.97808   1.02886   1.04854
 Alpha virt. eigenvalues --    1.05270   1.08755   1.16236   1.47155   1.62697
 Alpha virt. eigenvalues --    1.64968   2.07457   2.14365   2.16350   2.34771
 Alpha virt. eigenvalues --    2.42383   2.43527   2.56137   2.77443   3.89035
 Alpha virt. eigenvalues --    4.37248
          Condensed to atoms (all electrons):
               1          2          3          4          5          6
     1  N    6.908503   0.303051  -0.061283   0.333215   0.333628  -0.038158
     2  C    0.303051   4.929700   0.390876  -0.039596  -0.037365   0.390620
     3  H   -0.061283   0.390876   0.619725  -0.003018  -0.002972  -0.036759
     4  H    0.333215  -0.039596  -0.003018   0.429194  -0.027995   0.005056
     5  H    0.333628  -0.037365  -0.002972  -0.027995   0.424477  -0.003458
     6  H   -0.038158   0.390620  -0.036759   0.005056  -0.003458   0.542014
     7  H   -0.035343   0.390185  -0.035218  -0.003555   0.004643  -0.022490
               7
     1  N   -0.035343
     2  C    0.390185
     3  H   -0.035218
     4  H   -0.003555
     5  H    0.004643
     6  H   -0.022490
     7  H    0.538260
 Mulliken charges:
               1
     1  N   -0.743613
     2  C   -0.327469
     3  H    0.128649
     4  H    0.306700
     5  H    0.309042
     6  H    0.163174
     7  H    0.163518
 Sum of Mulliken charges =   0.00000
 Mulliken charges with hydrogens summed into heavy atoms:
               1
     1  N   -0.127872
     2  C    0.127872
 Electronic spatial extent (au):  <R**2>=             94.0466
 Charge=              0.0000 electrons
 Dipole moment (field-independent basis, Debye):
    X=              0.1749    Y=             -0.0167    Z=              1.3629  Tot=              1.3742
 Quadrupole moment (field-independent basis, Debye-Ang):
   XX=            -13.6817   YY=            -12.1259   ZZ=            -15.2331
   XY=              0.0818   XZ=             -2.1164   YZ=              0.0252
 Traceless Quadrupole moment (field-independent basis, Debye-Ang):
   XX=             -0.0015   YY=              1.5543   ZZ=             -1.5529
   XY=              0.0818   XZ=             -2.1164   YZ=              0.0252
 Octapole moment (field-independent basis, Debye-Ang**2):
  XXX=             -3.3326  YYY=              0.0168  ZZZ=              1.6055  XYY=             -2.1248
  XXY=             -0.0383  XXZ=              1.7740  XZZ=              0.4415  YZZ=             -0.0299
  YYZ=              0.2708  XYZ=             -0.0673
 Hexadecapole moment (field-independent basis, Debye-Ang**3):
 XXXX=            -72.1088 YYYY=            -22.4553 ZZZZ=            -23.3858 XXXY=              0.3046
 XXXZ=             -3.9477 YYYX=              0.1007 YYYZ=              0.0586 ZZZX=             -1.6026
 ZZZY=              0.0083 XXYY=            -13.3849 XXZZ=            -16.8900 YYZZ=             -7.7105
 XXYZ=             -0.0170 YYXZ=             -1.9010 ZZXY=             -0.0142
 N-N= 4.207464003803D+01 E-N=-3.065898827123D+02  KE= 9.487418958369D+01
 1\1\GINC-NODE91\SP\RwB97X\6-31G(d)\C1H5N1\YANZ\05-Jun-2019\0\\# 6-31g(
 d) wb97x\\tmpdir/M2_conf_1_37.gjf\\0,1\N,0,0.,0.,0.\C,0,1.4538,0.,0.\H
 ,0,1.80266,0.,1.05238\H,0,-0.34861,0.85562,0.42697\H,0,-0.37107,-0.822
 67,0.46185\H,0,1.80608,-0.91193,-0.49658\H,0,1.83941,0.88154,-0.53535\
 \Version=ES64L-G16RevA.03\State=1-A\HF=-95.8203335\RMSD=9.544e-09\Dipo
 le=0.1168233,0.0103573,0.5277812\Quadrupole=-0.2929158,1.1544041,-0.86
 14883,0.0080831,-1.6525684,-0.052926\PG=C01 [X(C1H5N1)]\\@


 CHARLIE BROWN.."I CAN'T GET THAT STUPID KITE IN THE
 AIR... I CAN'T... I C A N N O T..."
 LUCY.."OH COME NOW CHARLIE BROWN...THAT'S NO WAY TO TALK...
 THE TROUBLE WITH YOU IS YOU DON'T BELIEVE IN YOURSELF... YOU
 DON'T BELIEVE IN YOUR OWN ABILITIES...  YOU'VE GOT TO SAY TO
 YOURSELF...'I BELIEVE I CAN FLY THIS KITE.'... GO AHEAD SAY
 IT...."
 CHARLIE BROWN.."I BELIEVE THAT I CAN FLY THIS STUPID
 KITE.....I BELIEVE THAT I CAN FLY THIS KITE........
 I  A C T U A L L Y  B E L I E V E  T H A T  I  C A N ******"
 LUCY.."I'LL BET YOU TEN-TO-ONE YOU'RE WRONG......."    SCHULZ
 Job cpu time:       0 days  0 hours  0 minutes  9.9 seconds.
 Elapsed time:       0 days  0 hours  0 minutes  5.0 seconds.
 File lengths (MBytes):  RWF=      6 Int=      0 D2E=      0 Chk=      1 Scr=      1
 Normal termination of Gaussian 16 at Wed Jun  5 17:01:34 2019.
