 Entering Gaussian System, Link 0=g16
 Initial command:
 /share/apps/gaussian/g16/l1.exe "/tmp/55477.mgr/Gau-320970.inp" -scrdir="/tmp/55477.mgr/"
 Entering Link 1 = /share/apps/gaussian/g16/l1.exe PID=    320971.
  
 Copyright (c) 1988,1990,1992,1993,1995,1998,2003,2009,2016,
            Gaussian, Inc.  All Rights Reserved.
  
 This is part of the Gaussian(R) 16 program.  It is based on
 the Gaussian(R) 09 system (copyright 2009, Gaussian, Inc.),
 the Gaussian(R) 03 system (copyright 2003, Gaussian, Inc.),
 the Gaussian(R) 98 system (copyright 1998, Gaussian, Inc.),
 the Gaussian(R) 94 system (copyright 1995, Gaussian, Inc.),
 the Gaussian 92(TM) system (copyright 1992, Gaussian, Inc.),
 the Gaussian 90(TM) system (copyright 1990, Gaussian, Inc.),
 the Gaussian 88(TM) system (copyright 1988, Gaussian, Inc.),
 the Gaussian 86(TM) system (copyright 1986, Carnegie Mellon
 University), and the Gaussian 82(TM) system (copyright 1983,
 Carnegie Mellon University). Gaussian is a federally registered
 trademark of Gaussian, Inc.
  
 This software contains proprietary and confidential information,
 including trade secrets, belonging to Gaussian, Inc.
  
 This software is provided under written license and may be
 used, copied, transmitted, or stored only in accord with that
 written license.
  
 The following legend is applicable only to US Government
 contracts under FAR:
  
                    RESTRICTED RIGHTS LEGEND
  
 Use, reproduction and disclosure by the US Government is
 subject to restrictions as set forth in subparagraphs (a)
 and (c) of the Commercial Computer Software - Restricted
 Rights clause in FAR 52.227-19.
  
 Gaussian, Inc.
 340 Quinnipiac St., Bldg. 40, Wallingford CT 06492
  
  
 ---------------------------------------------------------------
 Warning -- This program may not be used in any manner that
 competes with the business of Gaussian, Inc. or will provide
 assistance to any competitor of Gaussian, Inc.  The licensee
 of this program is prohibited from giving any competitor of
 Gaussian, Inc. access to this program.  By using this program,
 the user acknowledges that Gaussian, Inc. is engaged in the
 business of creating and licensing software in the field of
 computational chemistry and represents and warrants to the
 licensee that it is not a competitor of Gaussian, Inc. and that
 it will not use this program in any manner prohibited above.
 ---------------------------------------------------------------
  

 Cite this work as:
 Gaussian 16, Revision A.03,
 M. J. Frisch, G. W. Trucks, H. B. Schlegel, G. E. Scuseria, 
 M. A. Robb, J. R. Cheeseman, G. Scalmani, V. Barone, 
 G. A. Petersson, H. Nakatsuji, X. Li, M. Caricato, A. V. Marenich, 
 J. Bloino, B. G. Janesko, R. Gomperts, B. Mennucci, H. P. Hratchian, 
 J. V. Ortiz, A. F. Izmaylov, J. L. Sonnenberg, D. Williams-Young, 
 F. Ding, F. Lipparini, F. Egidi, J. Goings, B. Peng, A. Petrone, 
 T. Henderson, D. Ranasinghe, V. G. Zakrzewski, J. Gao, N. Rega, 
 G. Zheng, W. Liang, M. Hada, M. Ehara, K. Toyota, R. Fukuda, 
 J. Hasegawa, M. Ishida, T. Nakajima, Y. Honda, O. Kitao, H. Nakai, 
 T. Vreven, K. Throssell, J. A. Montgomery, Jr., J. E. Peralta, 
 F. Ogliaro, M. J. Bearpark, J. J. Heyd, E. N. Brothers, K. N. Kudin, 
 V. N. Staroverov, T. A. Keith, R. Kobayashi, J. Normand, 
 K. Raghavachari, A. P. Rendell, J. C. Burant, S. S. Iyengar, 
 J. Tomasi, M. Cossi, J. M. Millam, M. Klene, C. Adamo, R. Cammi, 
 J. W. Ochterski, R. L. Martin, K. Morokuma, O. Farkas, 
 J. B. Foresman, and D. J. Fox, Gaussian, Inc., Wallingford CT, 2016.
 
 ******************************************
 Gaussian 16:  ES64L-G16RevA.03 25-Dec-2016
                 5-Jun-2019 
 ******************************************
 %nprocshared=2
 Will use up to    2 processors via shared memory.
 %mem=2GB
 ----------------
 # 6-31g(d) wb97x
 ----------------
 1/38=1,172=1/1;
 2/12=2,17=6,18=5,40=1/2;
 3/5=1,6=6,7=1,11=2,25=1,30=1,74=-57/1,2,3;
 4//1;
 5/5=2,38=5/2;
 6/7=2,8=2,9=2,10=2,28=1/1;
 99/5=1,9=1/99;
 ------------------------
 tmpdir/M2_conf_0_100.gjf
 ------------------------
 Symbolic Z-matrix:
 Charge =  0 Multiplicity = 1
 C                     0.        0.        0. 
 N                     1.3697    0.        0. 
 H                     1.79851   0.        0.91335 
 H                    -0.45796   0.19788   0.96654 
 O                    -0.68317  -0.21801  -0.98909 
 H                     1.98102  -0.17526  -0.75912 
 
                          Input orientation:                          
 ---------------------------------------------------------------------
 Center     Atomic      Atomic             Coordinates (Angstroms)
 Number     Number       Type             X           Y           Z
 ---------------------------------------------------------------------
      1          6           0        0.000000    0.000000    0.000000
      2          7           0        1.369700    0.000000    0.000000
      3          1           0        1.798510    0.000000    0.913350
      4          1           0       -0.457960    0.197880    0.966540
      5          8           0       -0.683170   -0.218010   -0.989090
      6          1           0        1.981020   -0.175260   -0.759120
 ---------------------------------------------------------------------
                    Distance matrix (angstroms):
                    1          2          3          4          5
     1  C    0.000000
     2  N    1.369700   0.000000
     3  H    2.017138   1.009003   0.000000
     4  H    1.087696   2.076944   2.265754   0.000000
     5  O    1.221699   2.289127   3.134572   2.012007   0.000000
     6  H    2.128713   0.990299   1.691503   3.010940   2.674439
                    6
     6  H    0.000000
 Stoichiometry    CH3NO
 Framework group  C1[X(CH3NO)]
 Deg. of freedom    12
 Full point group                 C1      NOp   1
 Largest Abelian subgroup         C1      NOp   1
 Largest concise Abelian subgroup C1      NOp   1
                         Standard orientation:                         
 ---------------------------------------------------------------------
 Center     Atomic      Atomic             Coordinates (Angstroms)
 Number     Number       Type             X           Y           Z
 ---------------------------------------------------------------------
      1          6           0       -0.166307    0.391873   -0.014712
      2          7           0        1.086993   -0.160636   -0.021824
      3          1           0        1.841832    0.486365    0.150493
      4          1           0       -0.187438    1.479340   -0.021856
      5          8           0       -1.199738   -0.259092    0.013806
      6          1           0        1.332405   -1.119750    0.001959
 ---------------------------------------------------------------------
 Rotational constants (GHZ):          72.3421086          11.2301676           9.7335250
 Standard basis: 6-31G(d) (6D, 7F)
 There are    51 symmetry adapted cartesian basis functions of A   symmetry.
 There are    51 symmetry adapted basis functions of A   symmetry.
    51 basis functions,    96 primitive gaussians,    51 cartesian basis functions
    12 alpha electrons       12 beta electrons
       nuclear repulsion energy        70.9027310052 Hartrees.
 NAtoms=    6 NActive=    6 NUniq=    6 SFac= 1.00D+00 NAtFMM=   60 NAOKFM=F Big=F
 Integral buffers will be    131072 words long.
 Raffenetti 2 integral format.
 Two-electron integral symmetry is turned on.
 One-electron integrals computed using PRISM.
 NBasis=    51 RedAO= T EigKep=  5.72D-03  NBF=    51
 NBsUse=    51 1.00D-06 EigRej= -1.00D+00 NBFU=    51
 ExpMin= 1.61D-01 ExpMax= 5.48D+03 ExpMxC= 8.25D+02 IAcc=3 IRadAn=         5 AccDes= 0.00D+00
 Harris functional with IExCor= 4538 and IRadAn=       5 diagonalized for initial guess.
 HarFok:  IExCor= 4538 AccDes= 0.00D+00 IRadAn=         5 IDoV= 1 UseB2=F ITyADJ=14
 ICtDFT=  3500011 ScaDFX=  1.000000  1.000000  1.000000  1.000000
 FoFCou: FMM=F IPFlag=           0 FMFlag=      100000 FMFlg1=           0
         NFxFlg=           0 DoJE=T BraDBF=F KetDBF=T FulRan=T
         wScrn=  0.000000 ICntrl=       500 IOpCl=  0 I1Cent=   200000004 NGrid=           0
         NMat0=    1 NMatS0=      1 NMatT0=    0 NMatD0=    1 NMtDS0=    0 NMtDT0=    0
 Petite list used in FoFCou.
 Keep R1 ints in memory in canonical form, NReq=3503041.
 Requested convergence on RMS density matrix=1.00D-08 within 128 cycles.
 Requested convergence on MAX density matrix=1.00D-06.
 Requested convergence on             energy=1.00D-06.
 No special actions if energy rises.
 Integral accuracy reduced to 1.0D-05 until final iterations.
 Initial convergence to 1.0D-05 achieved.  Increase integral accuracy.
 SCF Done:  E(RwB97X) =  -169.839677330     A.U. after   16 cycles
            NFock= 16  Conv=0.67D-08     -V/T= 2.0090

 **********************************************************************

            Population analysis using the SCF density.

 **********************************************************************

 Orbital symmetries:
       Occupied  (A) (A) (A) (A) (A) (A) (A) (A) (A) (A) (A) (A)
       Virtual   (A) (A) (A) (A) (A) (A) (A) (A) (A) (A) (A) (A)
                 (A) (A) (A) (A) (A) (A) (A) (A) (A) (A) (A) (A)
                 (A) (A) (A) (A) (A) (A) (A) (A) (A) (A) (A) (A)
                 (A) (A) (A)
 The electronic state is 1-A.
 Alpha  occ. eigenvalues --  -19.18135 -14.43865 -10.37519  -1.15385  -1.03516
 Alpha  occ. eigenvalues --   -0.75299  -0.65798  -0.60385  -0.51706  -0.50802
 Alpha  occ. eigenvalues --   -0.37157  -0.35524
 Alpha virt. eigenvalues --    0.12324   0.17880   0.20817   0.27726   0.36514
 Alpha virt. eigenvalues --    0.44277   0.64264   0.65783   0.75446   0.79240
 Alpha virt. eigenvalues --    0.80954   0.83111   0.95728   0.98100   0.99626
 Alpha virt. eigenvalues --    1.02006   1.12274   1.18928   1.31830   1.36068
 Alpha virt. eigenvalues --    1.48279   1.59243   1.60969   1.79207   1.89886
 Alpha virt. eigenvalues --    1.96301   1.98307   2.12875   2.20888   2.36363
 Alpha virt. eigenvalues --    2.44114   2.59646   2.72764   2.75441   3.02779
 Alpha virt. eigenvalues --    3.13375   3.86060   3.96248   4.30340
          Condensed to atoms (all electrons):
               1          2          3          4          5          6
     1  C    4.428934   0.247850  -0.010235   0.384043   0.610827  -0.004427
     2  N    0.247850   7.077869   0.302860  -0.110652  -0.092041   0.311841
     3  H   -0.010235   0.302860   0.376874   0.004621   0.002940  -0.019422
     4  H    0.384043  -0.110652   0.004621   0.634985  -0.052650   0.004446
     5  O    0.610827  -0.092041   0.002940  -0.052650   7.977240   0.003390
     6  H   -0.004427   0.311841  -0.019422   0.004446   0.003390   0.337322
 Mulliken charges:
               1
     1  C    0.343010
     2  N   -0.737726
     3  H    0.342363
     4  H    0.135208
     5  O   -0.449706
     6  H    0.366851
 Sum of Mulliken charges =   0.00000
 Mulliken charges with hydrogens summed into heavy atoms:
               1
     1  C    0.478218
     2  N   -0.028512
     5  O   -0.449706
 Electronic spatial extent (au):  <R**2>=            146.4788
 Charge=             -0.0000 electrons
 Dipole moment (field-independent basis, Debye):
    X=              3.7986    Y=              0.9837    Z=              0.2741  Tot=              3.9334
 Quadrupole moment (field-independent basis, Debye-Ang):
   XX=            -17.3937   YY=            -14.7284   ZZ=            -18.3907
   XY=             -1.4289   XZ=              0.6992   YZ=              0.1466
 Traceless Quadrupole moment (field-independent basis, Debye-Ang):
   XX=             -0.5561   YY=              2.1092   ZZ=             -1.5531
   XY=             -1.4289   XZ=              0.6992   YZ=              0.1466
 Octapole moment (field-independent basis, Debye-Ang**2):
  XXX=             11.7627  YYY=             -1.9409  ZZZ=              0.3280  XYY=              3.0856
  XXY=              0.2163  XXZ=              1.2385  XZZ=             -1.4638  YZZ=             -0.2487
  YYZ=              0.1079  XYZ=              0.2509
 Hexadecapole moment (field-independent basis, Debye-Ang**3):
 XXXX=           -108.0986 YYYY=            -31.3601 ZZZZ=            -15.6687 XXXY=              0.8254
 XXXZ=              2.4454 YYYX=             -3.5551 YYYZ=              0.0992 ZZZX=              0.4689
 ZZZY=              0.0786 XXYY=            -21.0306 XXZZ=            -23.6155 YYZZ=             -8.7850
 XXYZ=              0.4768 YYXZ=              0.2626 ZZXY=              0.2945
 N-N= 7.090273100516D+01 E-N=-5.396136991378D+02  KE= 1.683326505145D+02
 1\1\GINC-NODE91\SP\RwB97X\6-31G(d)\C1H3N1O1\YANZ\05-Jun-2019\0\\# 6-31
 g(d) wb97x\\tmpdir/M2_conf_0_100.gjf\\0,1\C,0,0.,0.,0.\N,0,1.3697,0.,0
 .\H,0,1.79851,0.,0.91335\H,0,-0.45796,0.19788,0.96654\O,0,-0.68317,-0.
 21801,-0.98909\H,0,1.98102,-0.17526,-0.75912\\Version=ES64L-G16RevA.03
 \State=1-A\HF=-169.8396773\RMSD=6.657e-09\Dipole=1.2107944,0.070845,0.
 961144\Quadrupole=0.6887043,-1.2045638,0.5158595,-0.7101689,-1.3385968
 ,0.0224243\PG=C01 [X(C1H3N1O1)]\\@


 THOUGH I SPEAK WITH THE TONGUES OF MEN AND OF ANGELS, 
 AND HAVE NOT LOVE,
 I AM BECOME AS SOUNDING BRASS, A TINKLING CYMBAL.
 AND THOUGH I HAVE THE GIFT OF PROPHECY,
 AND UNDERSTAND ALL MYSTERIES, AND ALL KNOWLEDGE.
 AND THOUGH I HAVE ALL FAITH, SO THAT I COULD REMOVE MOUNTAINS,
 AND HAVE NOT LOVE, I AM NOTHING.
 AND THOUGH I BESTOW ALL MY GOODS TO FEED THE POOR,
 AND THOUGH I GIVE MY BODY TO BE BURNED,
 AND HAVE NOT LOVE IT PROFITETH ME NOTHING.
 LOVE SUFFERETH LONG, AND IS KIND,
 LOVE ENVIETH NOT,
 LOVE VAUNTETH NOT ITSELF, IS NOT PUFFED UP,
 DOTH NOT BEHAVE ITSELF UNSEEMLY, SEEKETH NOT HER OWN,
 IS NOT EASILY PROVOKED, THINKETH NO EVIL,
 REJOICETH NOT IN INIQUITY, BUT REJOICETH IN THE TRUTH,
 BEARETH ALL THINGS, BELIEVETH ALL THINGS,
 HOPETH ALL THINGS, ENDURETH ALL THINGS.
 LOVE NEVER FAILETH, BUT WHETHER THERE BE PROPHECIES, THEY SHALL FAIL, 
 WHETHER THERE BE TONGUES, THEY SHALL CEASE,
 WHETHER THERE BE KNOWLEDGE, IT SHALL VANISH AWAY.
 FOR WE KNOW IN PART, AND WE PROPHESY IN PART.
 BUT WHEN THAT WHICH IS PERFECT IS COME, THEN THAT WHICH IS IN PART 
 SHALL BE DONE AWAY. 
 WHEN I WAS A CHILD, I SPAKE AS A CHILD, I UNDERSTOOD AS A CHILD, 
 I THOUGHT AS A CHILD.
 BUT WHEN I BECAME A MAN, I PUT AWAY CHILDISH THINGS.
 FOR NOW WE SEE THROUGH A GLASS, DARKLY, BUT THEN FACE TO FACE.
 NOW I KNOW IN PART. BUT THEN SHALL I KNOW EVEN AS ALSO I AM KNOWN.
 AND NOW ABIDETH FAITH, HOPE AND LOVE, THESE THREE.
 BUT THE GREATEST OF THESE IS LOVE.

                     I CORINTHIANS 13
 Job cpu time:       0 days  0 hours  0 minutes 11.4 seconds.
 Elapsed time:       0 days  0 hours  0 minutes  5.8 seconds.
 File lengths (MBytes):  RWF=      6 Int=      0 D2E=      0 Chk=      1 Scr=      1
 Normal termination of Gaussian 16 at Wed Jun  5 16:59:46 2019.
