 Entering Gaussian System, Link 0=g16
 Initial command:
 /share/apps/gaussian/g16/l1.exe "/tmp/55477.mgr/Gau-324242.inp" -scrdir="/tmp/55477.mgr/"
 Entering Link 1 = /share/apps/gaussian/g16/l1.exe PID=    324243.
  
 Copyright (c) 1988,1990,1992,1993,1995,1998,2003,2009,2016,
            Gaussian, Inc.  All Rights Reserved.
  
 This is part of the Gaussian(R) 16 program.  It is based on
 the Gaussian(R) 09 system (copyright 2009, Gaussian, Inc.),
 the Gaussian(R) 03 system (copyright 2003, Gaussian, Inc.),
 the Gaussian(R) 98 system (copyright 1998, Gaussian, Inc.),
 the Gaussian(R) 94 system (copyright 1995, Gaussian, Inc.),
 the Gaussian 92(TM) system (copyright 1992, Gaussian, Inc.),
 the Gaussian 90(TM) system (copyright 1990, Gaussian, Inc.),
 the Gaussian 88(TM) system (copyright 1988, Gaussian, Inc.),
 the Gaussian 86(TM) system (copyright 1986, Carnegie Mellon
 University), and the Gaussian 82(TM) system (copyright 1983,
 Carnegie Mellon University). Gaussian is a federally registered
 trademark of Gaussian, Inc.
  
 This software contains proprietary and confidential information,
 including trade secrets, belonging to Gaussian, Inc.
  
 This software is provided under written license and may be
 used, copied, transmitted, or stored only in accord with that
 written license.
  
 The following legend is applicable only to US Government
 contracts under FAR:
  
                    RESTRICTED RIGHTS LEGEND
  
 Use, reproduction and disclosure by the US Government is
 subject to restrictions as set forth in subparagraphs (a)
 and (c) of the Commercial Computer Software - Restricted
 Rights clause in FAR 52.227-19.
  
 Gaussian, Inc.
 340 Quinnipiac St., Bldg. 40, Wallingford CT 06492
  
  
 ---------------------------------------------------------------
 Warning -- This program may not be used in any manner that
 competes with the business of Gaussian, Inc. or will provide
 assistance to any competitor of Gaussian, Inc.  The licensee
 of this program is prohibited from giving any competitor of
 Gaussian, Inc. access to this program.  By using this program,
 the user acknowledges that Gaussian, Inc. is engaged in the
 business of creating and licensing software in the field of
 computational chemistry and represents and warrants to the
 licensee that it is not a competitor of Gaussian, Inc. and that
 it will not use this program in any manner prohibited above.
 ---------------------------------------------------------------
  

 Cite this work as:
 Gaussian 16, Revision A.03,
 M. J. Frisch, G. W. Trucks, H. B. Schlegel, G. E. Scuseria, 
 M. A. Robb, J. R. Cheeseman, G. Scalmani, V. Barone, 
 G. A. Petersson, H. Nakatsuji, X. Li, M. Caricato, A. V. Marenich, 
 J. Bloino, B. G. Janesko, R. Gomperts, B. Mennucci, H. P. Hratchian, 
 J. V. Ortiz, A. F. Izmaylov, J. L. Sonnenberg, D. Williams-Young, 
 F. Ding, F. Lipparini, F. Egidi, J. Goings, B. Peng, A. Petrone, 
 T. Henderson, D. Ranasinghe, V. G. Zakrzewski, J. Gao, N. Rega, 
 G. Zheng, W. Liang, M. Hada, M. Ehara, K. Toyota, R. Fukuda, 
 J. Hasegawa, M. Ishida, T. Nakajima, Y. Honda, O. Kitao, H. Nakai, 
 T. Vreven, K. Throssell, J. A. Montgomery, Jr., J. E. Peralta, 
 F. Ogliaro, M. J. Bearpark, J. J. Heyd, E. N. Brothers, K. N. Kudin, 
 V. N. Staroverov, T. A. Keith, R. Kobayashi, J. Normand, 
 K. Raghavachari, A. P. Rendell, J. C. Burant, S. S. Iyengar, 
 J. Tomasi, M. Cossi, J. M. Millam, M. Klene, C. Adamo, R. Cammi, 
 J. W. Ochterski, R. L. Martin, K. Morokuma, O. Farkas, 
 J. B. Foresman, and D. J. Fox, Gaussian, Inc., Wallingford CT, 2016.
 
 ******************************************
 Gaussian 16:  ES64L-G16RevA.03 25-Dec-2016
                 5-Jun-2019 
 ******************************************
 %nprocshared=2
 Will use up to    2 processors via shared memory.
 %mem=2GB
 ----------------
 # 6-31g(d) wb97x
 ----------------
 1/38=1,172=1/1;
 2/12=2,17=6,18=5,40=1/2;
 3/5=1,6=6,7=1,11=2,25=1,30=1,74=-57/1,2,3;
 4//1;
 5/5=2,38=5/2;
 6/7=2,8=2,9=2,10=2,28=1/1;
 99/5=1,9=1/99;
 ------------------------
 tmpdir/M2_conf_1_137.gjf
 ------------------------
 Symbolic Z-matrix:
 Charge =  0 Multiplicity = 1
 C                     0.        0.        0. 
 N                     1.4049    0.        0. 
 H                    -0.55065   0.       -0.84824 
 O                    -0.55253   0.00136   1.11501 
 H                     1.85155  -0.03173   0.90397 
 H                     2.05986   0.02949  -0.70371 
 
                          Input orientation:                          
 ---------------------------------------------------------------------
 Center     Atomic      Atomic             Coordinates (Angstroms)
 Number     Number       Type             X           Y           Z
 ---------------------------------------------------------------------
      1          6           0        0.000000    0.000000    0.000000
      2          7           0        1.404900    0.000000    0.000000
      3          1           0       -0.550650    0.000000   -0.848240
      4          8           0       -0.552530    0.001360    1.115010
      5          1           0        1.851550   -0.031730    0.903970
      6          1           0        2.059860    0.029490   -0.703710
 ---------------------------------------------------------------------
                    Distance matrix (angstroms):
                    1          2          3          4          5
     1  C    0.000000
     2  N    1.404900   0.000000
     3  H    1.011299   2.131593   0.000000
     4  O    1.244403   2.252728   1.963251   0.000000
     5  H    2.060681   1.008794   2.973518   2.413552   0.000000
     6  H    2.176948   0.961795   2.614674   3.183255   1.622275
                    6
     6  H    0.000000
 Stoichiometry    CH3NO
 Framework group  C1[X(CH3NO)]
 Deg. of freedom    12
 Full point group                 C1      NOp   1
 Largest Abelian subgroup         C1      NOp   1
 Largest concise Abelian subgroup C1      NOp   1
                         Standard orientation:                         
 ---------------------------------------------------------------------
 Center     Atomic      Atomic             Coordinates (Angstroms)
 Number     Number       Type             X           Y           Z
 ---------------------------------------------------------------------
      1          6           0       -0.182945    0.467967   -0.003528
      2          7           0        1.086808   -0.133247    0.000087
      3          1           0       -0.317622    1.470235   -0.010427
      4          8           0       -1.159489   -0.303298    0.003615
      5          1           0        1.103626   -1.141597   -0.024651
      6          1           0        1.979927    0.222673    0.026714
 ---------------------------------------------------------------------
 Rotational constants (GHZ):          64.4460309          11.5902353           9.8241961
 Standard basis: 6-31G(d) (6D, 7F)
 There are    51 symmetry adapted cartesian basis functions of A   symmetry.
 There are    51 symmetry adapted basis functions of A   symmetry.
    51 basis functions,    96 primitive gaussians,    51 cartesian basis functions
    12 alpha electrons       12 beta electrons
       nuclear repulsion energy        70.7332094179 Hartrees.
 NAtoms=    6 NActive=    6 NUniq=    6 SFac= 1.00D+00 NAtFMM=   60 NAOKFM=F Big=F
 Integral buffers will be    131072 words long.
 Raffenetti 2 integral format.
 Two-electron integral symmetry is turned on.
 One-electron integrals computed using PRISM.
 NBasis=    51 RedAO= T EigKep=  5.60D-03  NBF=    51
 NBsUse=    51 1.00D-06 EigRej= -1.00D+00 NBFU=    51
 ExpMin= 1.61D-01 ExpMax= 5.48D+03 ExpMxC= 8.25D+02 IAcc=3 IRadAn=         5 AccDes= 0.00D+00
 Harris functional with IExCor= 4538 and IRadAn=       5 diagonalized for initial guess.
 HarFok:  IExCor= 4538 AccDes= 0.00D+00 IRadAn=         5 IDoV= 1 UseB2=F ITyADJ=14
 ICtDFT=  3500011 ScaDFX=  1.000000  1.000000  1.000000  1.000000
 FoFCou: FMM=F IPFlag=           0 FMFlag=      100000 FMFlg1=           0
         NFxFlg=           0 DoJE=T BraDBF=F KetDBF=T FulRan=T
         wScrn=  0.000000 ICntrl=       500 IOpCl=  0 I1Cent=   200000004 NGrid=           0
         NMat0=    1 NMatS0=      1 NMatT0=    0 NMatD0=    1 NMtDS0=    0 NMtDT0=    0
 Petite list used in FoFCou.
 Keep R1 ints in memory in canonical form, NReq=3503041.
 Requested convergence on RMS density matrix=1.00D-08 within 128 cycles.
 Requested convergence on MAX density matrix=1.00D-06.
 Requested convergence on             energy=1.00D-06.
 No special actions if energy rises.
 Integral accuracy reduced to 1.0D-05 until final iterations.
 Initial convergence to 1.0D-05 achieved.  Increase integral accuracy.
 SCF Done:  E(RwB97X) =  -169.825049891     A.U. after   15 cycles
            NFock= 15  Conv=0.53D-08     -V/T= 2.0087

 **********************************************************************

            Population analysis using the SCF density.

 **********************************************************************

 Orbital symmetries:
       Occupied  (A) (A) (A) (A) (A) (A) (A) (A) (A) (A) (A) (A)
       Virtual   (A) (A) (A) (A) (A) (A) (A) (A) (A) (A) (A) (A)
                 (A) (A) (A) (A) (A) (A) (A) (A) (A) (A) (A) (A)
                 (A) (A) (A) (A) (A) (A) (A) (A) (A) (A) (A) (A)
                 (A) (A) (A)
 The electronic state is 1-A.
 Alpha  occ. eigenvalues --  -19.18198 -14.43066 -10.37656  -1.14626  -1.02037
 Alpha  occ. eigenvalues --   -0.76025  -0.67135  -0.59545  -0.51436  -0.50213
 Alpha  occ. eigenvalues --   -0.36334  -0.35710
 Alpha virt. eigenvalues --    0.10936   0.19026   0.23502   0.26753   0.35364
 Alpha virt. eigenvalues --    0.41835   0.64584   0.64648   0.74825   0.77899
 Alpha virt. eigenvalues --    0.82898   0.84361   0.98748   1.00395   1.02534
 Alpha virt. eigenvalues --    1.04010   1.11566   1.18325   1.27467   1.37768
 Alpha virt. eigenvalues --    1.46982   1.53041   1.58214   1.79427   1.93477
 Alpha virt. eigenvalues --    1.95948   1.96806   2.16744   2.25328   2.32844
 Alpha virt. eigenvalues --    2.38372   2.49575   2.67450   2.80765   3.00702
 Alpha virt. eigenvalues --    3.12365   3.83134   3.93907   4.30372
          Condensed to atoms (all electrons):
               1          2          3          4          5          6
     1  C    4.418131   0.278397   0.378652   0.582797  -0.010481  -0.004910
     2  N    0.278397   7.061532  -0.090375  -0.104925   0.308786   0.310900
     3  H    0.378652  -0.090375   0.588794  -0.051572   0.004642   0.002603
     4  O    0.582797  -0.104925  -0.051572   8.026686   0.008507   0.003342
     5  H   -0.010481   0.308786   0.004642   0.008507   0.353841  -0.023185
     6  H   -0.004910   0.310900   0.002603   0.003342  -0.023185   0.364663
 Mulliken charges:
               1
     1  C    0.357415
     2  N   -0.764315
     3  H    0.167257
     4  O   -0.464834
     5  H    0.357890
     6  H    0.346587
 Sum of Mulliken charges =  -0.00000
 Mulliken charges with hydrogens summed into heavy atoms:
               1
     1  C    0.524671
     2  N   -0.059837
     4  O   -0.464834
 Electronic spatial extent (au):  <R**2>=            144.8870
 Charge=             -0.0000 electrons
 Dipole moment (field-independent basis, Debye):
    X=              3.5061    Y=              1.1976    Z=             -0.0088  Tot=              3.7050
 Quadrupole moment (field-independent basis, Debye-Ang):
   XX=            -17.0218   YY=            -14.6025   ZZ=            -18.4208
   XY=             -1.8799   XZ=              0.0716   YZ=              0.0739
 Traceless Quadrupole moment (field-independent basis, Debye-Ang):
   XX=             -0.3400   YY=              2.0792   ZZ=             -1.7391
   XY=             -1.8799   XZ=              0.0716   YZ=              0.0739
 Octapole moment (field-independent basis, Debye-Ang**2):
  XXX=             12.9815  YYY=             -1.1971  ZZZ=              0.0180  XYY=              1.7509
  XXY=              0.3983  XXZ=              0.1734  XZZ=             -1.5295  YZZ=             -0.1335
  YYZ=             -0.0727  XYZ=              0.0997
 Hexadecapole moment (field-independent basis, Debye-Ang**3):
 XXXX=            -99.5344 YYYY=            -31.3568 ZZZZ=            -15.5875 XXXY=              0.5703
 XXXZ=              0.3990 YYYX=             -3.7144 YYYZ=              0.0987 ZZZX=              0.0332
 ZZZY=              0.0444 XXYY=            -22.6719 XXZZ=            -23.1990 YYZZ=             -8.8262
 XXYZ=              0.1347 YYXZ=             -0.0430 ZZXY=              0.2293
 N-N= 7.073320941792D+01 E-N=-5.393267470652D+02  KE= 1.683558957460D+02
 1\1\GINC-NODE91\SP\RwB97X\6-31G(d)\C1H3N1O1\YANZ\05-Jun-2019\0\\# 6-31
 g(d) wb97x\\tmpdir/M2_conf_1_137.gjf\\0,1\C,0,0.,0.,0.\N,0,1.4049,0.,0
 .\H,0,-0.55065,0.,-0.84824\O,0,-0.55253,0.00136,1.11501\H,0,1.85155,-0
 .03173,0.90397\H,0,2.05986,0.02949,-0.70371\\Version=ES64L-G16RevA.03\
 State=1-A\HF=-169.8250499\RMSD=5.256e-09\Dipole=1.0450727,0.0004194,-1
 .0161866\Quadrupole=1.1578265,-1.2920588,0.1342323,0.008095,1.5812851,
 -0.0857337\PG=C01 [X(C1H3N1O1)]\\@


 SUCCESS IS NEVER CERTAIN,
 FAILURE IS NEVER FINAL.
 Job cpu time:       0 days  0 hours  0 minutes 10.7 seconds.
 Elapsed time:       0 days  0 hours  0 minutes  5.5 seconds.
 File lengths (MBytes):  RWF=      6 Int=      0 D2E=      0 Chk=      1 Scr=      1
 Normal termination of Gaussian 16 at Wed Jun  5 17:02:24 2019.
