 Entering Gaussian System, Link 0=g16
 Initial command:
 /share/apps/gaussian/g16/l1.exe "/tmp/55477.mgr/Gau-326839.inp" -scrdir="/tmp/55477.mgr/"
 Entering Link 1 = /share/apps/gaussian/g16/l1.exe PID=    326840.
  
 Copyright (c) 1988,1990,1992,1993,1995,1998,2003,2009,2016,
            Gaussian, Inc.  All Rights Reserved.
  
 This is part of the Gaussian(R) 16 program.  It is based on
 the Gaussian(R) 09 system (copyright 2009, Gaussian, Inc.),
 the Gaussian(R) 03 system (copyright 2003, Gaussian, Inc.),
 the Gaussian(R) 98 system (copyright 1998, Gaussian, Inc.),
 the Gaussian(R) 94 system (copyright 1995, Gaussian, Inc.),
 the Gaussian 92(TM) system (copyright 1992, Gaussian, Inc.),
 the Gaussian 90(TM) system (copyright 1990, Gaussian, Inc.),
 the Gaussian 88(TM) system (copyright 1988, Gaussian, Inc.),
 the Gaussian 86(TM) system (copyright 1986, Carnegie Mellon
 University), and the Gaussian 82(TM) system (copyright 1983,
 Carnegie Mellon University). Gaussian is a federally registered
 trademark of Gaussian, Inc.
  
 This software contains proprietary and confidential information,
 including trade secrets, belonging to Gaussian, Inc.
  
 This software is provided under written license and may be
 used, copied, transmitted, or stored only in accord with that
 written license.
  
 The following legend is applicable only to US Government
 contracts under FAR:
  
                    RESTRICTED RIGHTS LEGEND
  
 Use, reproduction and disclosure by the US Government is
 subject to restrictions as set forth in subparagraphs (a)
 and (c) of the Commercial Computer Software - Restricted
 Rights clause in FAR 52.227-19.
  
 Gaussian, Inc.
 340 Quinnipiac St., Bldg. 40, Wallingford CT 06492
  
  
 ---------------------------------------------------------------
 Warning -- This program may not be used in any manner that
 competes with the business of Gaussian, Inc. or will provide
 assistance to any competitor of Gaussian, Inc.  The licensee
 of this program is prohibited from giving any competitor of
 Gaussian, Inc. access to this program.  By using this program,
 the user acknowledges that Gaussian, Inc. is engaged in the
 business of creating and licensing software in the field of
 computational chemistry and represents and warrants to the
 licensee that it is not a competitor of Gaussian, Inc. and that
 it will not use this program in any manner prohibited above.
 ---------------------------------------------------------------
  

 Cite this work as:
 Gaussian 16, Revision A.03,
 M. J. Frisch, G. W. Trucks, H. B. Schlegel, G. E. Scuseria, 
 M. A. Robb, J. R. Cheeseman, G. Scalmani, V. Barone, 
 G. A. Petersson, H. Nakatsuji, X. Li, M. Caricato, A. V. Marenich, 
 J. Bloino, B. G. Janesko, R. Gomperts, B. Mennucci, H. P. Hratchian, 
 J. V. Ortiz, A. F. Izmaylov, J. L. Sonnenberg, D. Williams-Young, 
 F. Ding, F. Lipparini, F. Egidi, J. Goings, B. Peng, A. Petrone, 
 T. Henderson, D. Ranasinghe, V. G. Zakrzewski, J. Gao, N. Rega, 
 G. Zheng, W. Liang, M. Hada, M. Ehara, K. Toyota, R. Fukuda, 
 J. Hasegawa, M. Ishida, T. Nakajima, Y. Honda, O. Kitao, H. Nakai, 
 T. Vreven, K. Throssell, J. A. Montgomery, Jr., J. E. Peralta, 
 F. Ogliaro, M. J. Bearpark, J. J. Heyd, E. N. Brothers, K. N. Kudin, 
 V. N. Staroverov, T. A. Keith, R. Kobayashi, J. Normand, 
 K. Raghavachari, A. P. Rendell, J. C. Burant, S. S. Iyengar, 
 J. Tomasi, M. Cossi, J. M. Millam, M. Klene, C. Adamo, R. Cammi, 
 J. W. Ochterski, R. L. Martin, K. Morokuma, O. Farkas, 
 J. B. Foresman, and D. J. Fox, Gaussian, Inc., Wallingford CT, 2016.
 
 ******************************************
 Gaussian 16:  ES64L-G16RevA.03 25-Dec-2016
                 5-Jun-2019 
 ******************************************
 %nprocshared=2
 Will use up to    2 processors via shared memory.
 %mem=2GB
 ----------------
 # 6-31g(d) wb97x
 ----------------
 1/38=1,172=1/1;
 2/12=2,17=6,18=5,40=1/2;
 3/5=1,6=6,7=1,11=2,25=1,30=1,74=-57/1,2,3;
 4//1;
 5/5=2,38=5/2;
 6/7=2,8=2,9=2,10=2,28=1/1;
 99/5=1,9=1/99;
 ------------------------
 tmpdir/M2_conf_2_114.gjf
 ------------------------
 Symbolic Z-matrix:
 Charge =  0 Multiplicity = 1
 C                     0.        0.        0. 
 C                     1.3885    0.        0. 
 H                    -0.49237   0.       -0.87991 
 H                    -0.54843  -0.00804   0.93963 
 H                     1.91962  -0.00133   0.94955 
 H                     1.92154  -0.00208  -0.8527 
 
                          Input orientation:                          
 ---------------------------------------------------------------------
 Center     Atomic      Atomic             Coordinates (Angstroms)
 Number     Number       Type             X           Y           Z
 ---------------------------------------------------------------------
      1          6           0        0.000000    0.000000    0.000000
      2          6           0        1.388500    0.000000    0.000000
      3          1           0       -0.492370    0.000000   -0.879910
      4          1           0       -0.548430   -0.008040    0.939630
      5          1           0        1.919620   -0.001330    0.949550
      6          1           0        1.921540   -0.002080   -0.852700
 ---------------------------------------------------------------------
                    Distance matrix (angstroms):
                    1          2          3          4          5
     1  C    0.000000
     2  C    1.388500   0.000000
     3  H    1.008300   2.076515   0.000000
     4  H    1.088000   2.152828   1.820421   0.000000
     5  H    2.141632   1.087996   3.027313   2.468079   0.000000
     6  H    2.102241   1.005601   2.414064   3.051759   1.802251
                    6
     6  H    0.000000
 Stoichiometry    C2H4
 Framework group  C1[X(C2H4)]
 Deg. of freedom    12
 Full point group                 C1      NOp   1
 Largest Abelian subgroup         C1      NOp   1
 Largest concise Abelian subgroup C1      NOp   1
                         Standard orientation:                         
 ---------------------------------------------------------------------
 Center     Atomic      Atomic             Coordinates (Angstroms)
 Number     Number       Type             X           Y           Z
 ---------------------------------------------------------------------
      1          6           0       -0.695702   -0.010342   -0.001039
      2          6           0        0.692798   -0.009235   -0.000352
      3          1           0       -1.187371   -0.890642    0.000573
      4          1           0       -1.244883    0.928866    0.004747
      5          1           0        1.223161    0.940739   -0.000763
      6          1           0        1.226515   -0.861504    0.003790
 ---------------------------------------------------------------------
 Rotational constants (GHZ):         152.6467848          28.7566106          24.1981414
 Standard basis: 6-31G(d) (6D, 7F)
 There are    38 symmetry adapted cartesian basis functions of A   symmetry.
 There are    38 symmetry adapted basis functions of A   symmetry.
    38 basis functions,    72 primitive gaussians,    38 cartesian basis functions
     8 alpha electrons        8 beta electrons
       nuclear repulsion energy        33.2258040189 Hartrees.
 NAtoms=    6 NActive=    6 NUniq=    6 SFac= 1.00D+00 NAtFMM=   60 NAOKFM=F Big=F
 Integral buffers will be    131072 words long.
 Raffenetti 2 integral format.
 Two-electron integral symmetry is turned on.
 One-electron integrals computed using PRISM.
 NBasis=    38 RedAO= T EigKep=  8.86D-03  NBF=    38
 NBsUse=    38 1.00D-06 EigRej= -1.00D+00 NBFU=    38
 ExpMin= 1.61D-01 ExpMax= 3.05D+03 ExpMxC= 4.57D+02 IAcc=3 IRadAn=         5 AccDes= 0.00D+00
 Harris functional with IExCor= 4538 and IRadAn=       5 diagonalized for initial guess.
 HarFok:  IExCor= 4538 AccDes= 0.00D+00 IRadAn=         5 IDoV= 1 UseB2=F ITyADJ=14
 ICtDFT=  3500011 ScaDFX=  1.000000  1.000000  1.000000  1.000000
 FoFCou: FMM=F IPFlag=           0 FMFlag=      100000 FMFlg1=           0
         NFxFlg=           0 DoJE=T BraDBF=F KetDBF=T FulRan=T
         wScrn=  0.000000 ICntrl=       500 IOpCl=  0 I1Cent=   200000004 NGrid=           0
         NMat0=    1 NMatS0=      1 NMatT0=    0 NMatD0=    1 NMtDS0=    0 NMtDT0=    0
 Petite list used in FoFCou.
 Keep R1 ints in memory in canonical form, NReq=2276060.
 Requested convergence on RMS density matrix=1.00D-08 within 128 cycles.
 Requested convergence on MAX density matrix=1.00D-06.
 Requested convergence on             energy=1.00D-06.
 No special actions if energy rises.
 Integral accuracy reduced to 1.0D-05 until final iterations.
 Initial convergence to 1.0D-05 achieved.  Increase integral accuracy.
 SCF Done:  E(RwB97X) =  -78.5433391908     A.U. after   12 cycles
            NFock= 12  Conv=0.64D-08     -V/T= 2.0090

 **********************************************************************

            Population analysis using the SCF density.

 **********************************************************************

 Orbital symmetries:
       Occupied  (A) (A) (A) (A) (A) (A) (A) (A)
       Virtual   (A) (A) (A) (A) (A) (A) (A) (A) (A) (A) (A) (A)
                 (A) (A) (A) (A) (A) (A) (A) (A) (A) (A) (A) (A)
                 (A) (A) (A) (A) (A) (A)
 The electronic state is 1-A.
 Alpha  occ. eigenvalues --  -10.26595 -10.26515  -0.87826  -0.71051  -0.58504
 Alpha  occ. eigenvalues --   -0.51057  -0.47256  -0.35711
 Alpha virt. eigenvalues --    0.10048   0.22262   0.26362   0.27093   0.35074
 Alpha virt. eigenvalues --    0.41028   0.59688   0.66089   0.66579   0.74669
 Alpha virt. eigenvalues --    0.75698   0.77955   0.99863   1.00356   1.08636
 Alpha virt. eigenvalues --    1.10047   1.19255   1.34933   1.55399   1.65774
 Alpha virt. eigenvalues --    1.90803   2.02861   2.12917   2.18587   2.42481
 Alpha virt. eigenvalues --    2.43501   2.76663   2.79265   4.21859   4.40104
          Condensed to atoms (all electrons):
               1          2          3          4          5          6
     1  C    4.967441   0.652000   0.395604   0.386131  -0.034006  -0.034546
     2  C    0.652000   4.969093  -0.037205  -0.032752   0.386035   0.395545
     3  H    0.395604  -0.037205   0.506985  -0.033673   0.003957  -0.005683
     4  H    0.386131  -0.032752  -0.033673   0.518612  -0.005725   0.003666
     5  H   -0.034006   0.386035   0.003957  -0.005725   0.525239  -0.035431
     6  H   -0.034546   0.395545  -0.005683   0.003666  -0.035431   0.504795
 Mulliken charges:
               1
     1  C   -0.332625
     2  C   -0.332716
     3  H    0.170016
     4  H    0.163741
     5  H    0.159930
     6  H    0.171654
 Sum of Mulliken charges =   0.00000
 Mulliken charges with hydrogens summed into heavy atoms:
               1
     1  C    0.001132
     2  C   -0.001132
 Electronic spatial extent (au):  <R**2>=             82.5756
 Charge=              0.0000 electrons
 Dipole moment (field-independent basis, Debye):
    X=              0.0056    Y=             -0.0427    Z=              0.0080  Tot=              0.0438
 Quadrupole moment (field-independent basis, Debye-Ang):
   XX=            -11.8754   YY=            -11.9055   ZZ=            -15.1022
   XY=             -0.0663   XZ=             -0.0028   YZ=             -0.0001
 Traceless Quadrupole moment (field-independent basis, Debye-Ang):
   XX=              1.0856   YY=              1.0555   ZZ=             -2.1411
   XY=             -0.0663   XZ=             -0.0028   YZ=             -0.0001
 Octapole moment (field-independent basis, Debye-Ang**2):
  XXX=              0.1026  YYY=             -0.1482  ZZZ=              0.0122  XYY=             -0.0456
  XXY=             -0.0700  XXZ=              0.0184  XZZ=              0.0110  YZZ=             -0.1404
  YYZ=              0.0111  XYZ=             -0.0114
 Hexadecapole moment (field-independent basis, Debye-Ang**3):
 XXXX=            -67.3193 YYYY=            -24.4380 ZZZZ=            -15.8304 XXXY=             -0.3263
 XXXZ=             -0.0068 YYYX=             -0.0367 YYYZ=             -0.0001 ZZZX=             -0.0018
 ZZZY=             -0.0008 XXYY=            -12.8929 XXZZ=            -14.7035 YYZZ=             -7.2958
 XXYZ=              0.0003 YYXZ=             -0.0047 ZZXY=             -0.0197
 N-N= 3.322580401886D+01 E-N=-2.478104719943D+02  KE= 7.784592689846D+01
 1\1\GINC-NODE91\SP\RwB97X\6-31G(d)\C2H4\YANZ\05-Jun-2019\0\\# 6-31g(d)
  wb97x\\tmpdir/M2_conf_2_114.gjf\\0,1\C,0,0.,0.,0.\C,0,1.3885,0.,0.\H,
 0,-0.49237,0.,-0.87991\H,0,-0.54843,-0.00804,0.93963\H,0,1.91962,-0.00
 133,0.94955\H,0,1.92154,-0.00208,-0.8527\\Version=ES64L-G16RevA.03\Sta
 te=1-A\HF=-78.5433392\RMSD=6.350e-09\Dipole=0.0022101,-0.0031232,-0.01
 67984\Quadrupole=0.8070648,-1.5918667,0.7848019,0.003373,-0.0493275,-0
 .0049629\PG=C01 [X(C2H4)]\\@


 YOU WILL NEVER "FIND" TIME FOR ANYTHING.
 IF YOU WANT TIME, YOU MUST MAKE IT.

                        -- CHARLES BIXTON
 Job cpu time:       0 days  0 hours  0 minutes  7.9 seconds.
 Elapsed time:       0 days  0 hours  0 minutes  4.1 seconds.
 File lengths (MBytes):  RWF=      6 Int=      0 D2E=      0 Chk=      1 Scr=      1
 Normal termination of Gaussian 16 at Wed Jun  5 17:04:30 2019.
