 Entering Gaussian System, Link 0=g16
 Initial command:
 /share/apps/gaussian/g16/l1.exe "/tmp/55477.mgr/Gau-327630.inp" -scrdir="/tmp/55477.mgr/"
 Entering Link 1 = /share/apps/gaussian/g16/l1.exe PID=    327631.
  
 Copyright (c) 1988,1990,1992,1993,1995,1998,2003,2009,2016,
            Gaussian, Inc.  All Rights Reserved.
  
 This is part of the Gaussian(R) 16 program.  It is based on
 the Gaussian(R) 09 system (copyright 2009, Gaussian, Inc.),
 the Gaussian(R) 03 system (copyright 2003, Gaussian, Inc.),
 the Gaussian(R) 98 system (copyright 1998, Gaussian, Inc.),
 the Gaussian(R) 94 system (copyright 1995, Gaussian, Inc.),
 the Gaussian 92(TM) system (copyright 1992, Gaussian, Inc.),
 the Gaussian 90(TM) system (copyright 1990, Gaussian, Inc.),
 the Gaussian 88(TM) system (copyright 1988, Gaussian, Inc.),
 the Gaussian 86(TM) system (copyright 1986, Carnegie Mellon
 University), and the Gaussian 82(TM) system (copyright 1983,
 Carnegie Mellon University). Gaussian is a federally registered
 trademark of Gaussian, Inc.
  
 This software contains proprietary and confidential information,
 including trade secrets, belonging to Gaussian, Inc.
  
 This software is provided under written license and may be
 used, copied, transmitted, or stored only in accord with that
 written license.
  
 The following legend is applicable only to US Government
 contracts under FAR:
  
                    RESTRICTED RIGHTS LEGEND
  
 Use, reproduction and disclosure by the US Government is
 subject to restrictions as set forth in subparagraphs (a)
 and (c) of the Commercial Computer Software - Restricted
 Rights clause in FAR 52.227-19.
  
 Gaussian, Inc.
 340 Quinnipiac St., Bldg. 40, Wallingford CT 06492
  
  
 ---------------------------------------------------------------
 Warning -- This program may not be used in any manner that
 competes with the business of Gaussian, Inc. or will provide
 assistance to any competitor of Gaussian, Inc.  The licensee
 of this program is prohibited from giving any competitor of
 Gaussian, Inc. access to this program.  By using this program,
 the user acknowledges that Gaussian, Inc. is engaged in the
 business of creating and licensing software in the field of
 computational chemistry and represents and warrants to the
 licensee that it is not a competitor of Gaussian, Inc. and that
 it will not use this program in any manner prohibited above.
 ---------------------------------------------------------------
  

 Cite this work as:
 Gaussian 16, Revision A.03,
 M. J. Frisch, G. W. Trucks, H. B. Schlegel, G. E. Scuseria, 
 M. A. Robb, J. R. Cheeseman, G. Scalmani, V. Barone, 
 G. A. Petersson, H. Nakatsuji, X. Li, M. Caricato, A. V. Marenich, 
 J. Bloino, B. G. Janesko, R. Gomperts, B. Mennucci, H. P. Hratchian, 
 J. V. Ortiz, A. F. Izmaylov, J. L. Sonnenberg, D. Williams-Young, 
 F. Ding, F. Lipparini, F. Egidi, J. Goings, B. Peng, A. Petrone, 
 T. Henderson, D. Ranasinghe, V. G. Zakrzewski, J. Gao, N. Rega, 
 G. Zheng, W. Liang, M. Hada, M. Ehara, K. Toyota, R. Fukuda, 
 J. Hasegawa, M. Ishida, T. Nakajima, Y. Honda, O. Kitao, H. Nakai, 
 T. Vreven, K. Throssell, J. A. Montgomery, Jr., J. E. Peralta, 
 F. Ogliaro, M. J. Bearpark, J. J. Heyd, E. N. Brothers, K. N. Kudin, 
 V. N. Staroverov, T. A. Keith, R. Kobayashi, J. Normand, 
 K. Raghavachari, A. P. Rendell, J. C. Burant, S. S. Iyengar, 
 J. Tomasi, M. Cossi, J. M. Millam, M. Klene, C. Adamo, R. Cammi, 
 J. W. Ochterski, R. L. Martin, K. Morokuma, O. Farkas, 
 J. B. Foresman, and D. J. Fox, Gaussian, Inc., Wallingford CT, 2016.
 
 ******************************************
 Gaussian 16:  ES64L-G16RevA.03 25-Dec-2016
                 5-Jun-2019 
 ******************************************
 %nprocshared=2
 Will use up to    2 processors via shared memory.
 %mem=2GB
 ----------------
 # 6-31g(d) wb97x
 ----------------
 1/38=1,172=1/1;
 2/12=2,17=6,18=5,40=1/2;
 3/5=1,6=6,7=1,11=2,25=1,30=1,74=-57/1,2,3;
 4//1;
 5/5=2,38=5/2;
 6/7=2,8=2,9=2,10=2,28=1/1;
 99/5=1,9=1/99;
 ------------------------
 tmpdir/M2_conf_2_192.gjf
 ------------------------
 Symbolic Z-matrix:
 Charge =  0 Multiplicity = 1
 C                     0.        0.        0. 
 C                     1.3969    0.        0. 
 N                     2.14086   0.        1.10463 
 H                    -0.56839  -0.00414  -0.91208 
 O                    -0.57142  -0.01445   1.08923 
 H                     1.94805  -0.02428  -0.93985 
 H                     1.68848  -0.00407   1.92278 
 
                          Input orientation:                          
 ---------------------------------------------------------------------
 Center     Atomic      Atomic             Coordinates (Angstroms)
 Number     Number       Type             X           Y           Z
 ---------------------------------------------------------------------
      1          6           0        0.000000    0.000000    0.000000
      2          6           0        1.396900    0.000000    0.000000
      3          7           0        2.140860    0.000000    1.104630
      4          1           0       -0.568390   -0.004140   -0.912080
      5          8           0       -0.571420   -0.014450    1.089230
      6          1           0        1.948050   -0.024280   -0.939850
      7          1           0        1.688480   -0.004070    1.922780
 ---------------------------------------------------------------------
                    Distance matrix (angstroms):
                    1          2          3          4          5
     1  C    0.000000
     2  C    1.396900   0.000000
     3  N    2.409043   1.331797   0.000000
     4  H    1.074697   2.166627   3.377451   0.000000
     5  O    1.230102   2.249648   2.712362   2.001339   0.000000
     6  H    2.163055   1.089805   2.053695   2.516674   3.234964
     7  H    2.558919   1.944767   0.934898   3.623519   2.408747
                    6          7
     6  H    0.000000
     7  H    2.874445   0.000000
 Stoichiometry    C2H3NO
 Framework group  C1[X(C2H3NO)]
 Deg. of freedom    15
 Full point group                 C1      NOp   1
 Largest Abelian subgroup         C1      NOp   1
 Largest concise Abelian subgroup C1      NOp   1
                         Standard orientation:                         
 ---------------------------------------------------------------------
 Center     Atomic      Atomic             Coordinates (Angstroms)
 Number     Number       Type             X           Y           Z
 ---------------------------------------------------------------------
      1          6           0        0.762193    0.503323   -0.006204
      2          6           0       -0.631895    0.591783   -0.001529
      3          7           0       -1.444318   -0.463515   -0.001389
      4          1           0        1.387218    1.377566   -0.002026
      5          8           0        1.263525   -0.619938    0.004016
      6          1           0       -1.122334    1.564589    0.026596
      7          1           0       -1.044651   -1.308678   -0.000574
 ---------------------------------------------------------------------
 Rotational constants (GHZ):          22.5475092           7.1325698           5.4186684
 Standard basis: 6-31G(d) (6D, 7F)
 There are    66 symmetry adapted cartesian basis functions of A   symmetry.
 There are    66 symmetry adapted basis functions of A   symmetry.
    66 basis functions,   124 primitive gaussians,    66 cartesian basis functions
    15 alpha electrons       15 beta electrons
       nuclear repulsion energy       106.6762536201 Hartrees.
 NAtoms=    7 NActive=    7 NUniq=    7 SFac= 1.00D+00 NAtFMM=   60 NAOKFM=F Big=F
 Integral buffers will be    131072 words long.
 Raffenetti 2 integral format.
 Two-electron integral symmetry is turned on.
 One-electron integrals computed using PRISM.
 NBasis=    66 RedAO= T EigKep=  2.65D-03  NBF=    66
 NBsUse=    66 1.00D-06 EigRej= -1.00D+00 NBFU=    66
 ExpMin= 1.61D-01 ExpMax= 5.48D+03 ExpMxC= 8.25D+02 IAcc=3 IRadAn=         5 AccDes= 0.00D+00
 Harris functional with IExCor= 4538 and IRadAn=       5 diagonalized for initial guess.
 HarFok:  IExCor= 4538 AccDes= 0.00D+00 IRadAn=         5 IDoV= 1 UseB2=F ITyADJ=14
 ICtDFT=  3500011 ScaDFX=  1.000000  1.000000  1.000000  1.000000
 FoFCou: FMM=F IPFlag=           0 FMFlag=      100000 FMFlg1=           0
         NFxFlg=           0 DoJE=T BraDBF=F KetDBF=T FulRan=T
         wScrn=  0.000000 ICntrl=       500 IOpCl=  0 I1Cent=   200000004 NGrid=           0
         NMat0=    1 NMatS0=      1 NMatT0=    0 NMatD0=    1 NMtDS0=    0 NMtDT0=    0
 Petite list used in FoFCou.
 Keep R1 ints in memory in canonical form, NReq=6667331.
 Requested convergence on RMS density matrix=1.00D-08 within 128 cycles.
 Requested convergence on MAX density matrix=1.00D-06.
 Requested convergence on             energy=1.00D-06.
 No special actions if energy rises.
 Integral accuracy reduced to 1.0D-05 until final iterations.
 Initial convergence to 1.0D-05 achieved.  Increase integral accuracy.
 SCF Done:  E(RwB97X) =  -207.864667121     A.U. after   16 cycles
            NFock= 16  Conv=0.79D-08     -V/T= 2.0080

 **********************************************************************

            Population analysis using the SCF density.

 **********************************************************************

 Orbital symmetries:
       Occupied  (A) (A) (A) (A) (A) (A) (A) (A) (A) (A) (A) (A)
                 (A) (A) (A)
       Virtual   (A) (A) (A) (A) (A) (A) (A) (A) (A) (A) (A) (A)
                 (A) (A) (A) (A) (A) (A) (A) (A) (A) (A) (A) (A)
                 (A) (A) (A) (A) (A) (A) (A) (A) (A) (A) (A) (A)
                 (A) (A) (A) (A) (A) (A) (A) (A) (A) (A) (A) (A)
                 (A) (A) (A)
 The electronic state is 1-A.
 Alpha  occ. eigenvalues --  -19.23931 -14.42841 -10.37473 -10.33721  -1.19007
 Alpha  occ. eigenvalues --   -1.03883  -0.85573  -0.71328  -0.65289  -0.59676
 Alpha  occ. eigenvalues --   -0.53597  -0.53322  -0.42211  -0.40138  -0.37979
 Alpha virt. eigenvalues --   -0.01967   0.15140   0.21006   0.24041   0.25215
 Alpha virt. eigenvalues --    0.32612   0.44369   0.47226   0.60611   0.62870
 Alpha virt. eigenvalues --    0.68925   0.70090   0.73504   0.77646   0.82058
 Alpha virt. eigenvalues --    0.85858   0.89929   0.94946   0.96598   1.06219
 Alpha virt. eigenvalues --    1.08042   1.08152   1.13324   1.22104   1.24275
 Alpha virt. eigenvalues --    1.39298   1.40666   1.51550   1.62821   1.64297
 Alpha virt. eigenvalues --    1.78491   1.84506   1.89649   1.93429   1.97015
 Alpha virt. eigenvalues --    2.10327   2.14234   2.32282   2.37961   2.41136
 Alpha virt. eigenvalues --    2.45887   2.60235   2.71544   2.72370   2.90183
 Alpha virt. eigenvalues --    2.99930   3.19376   3.82095   3.99740   4.19019
 Alpha virt. eigenvalues --    4.44267
          Condensed to atoms (all electrons):
               1          2          3          4          5          6
     1  C    4.697894   0.303061  -0.054315   0.359714   0.545530  -0.052800
     2  C    0.303061   5.002089   0.609079  -0.085710  -0.087123   0.359843
     3  N   -0.054315   0.609079   6.658016   0.004445  -0.017496  -0.037875
     4  H    0.359714  -0.085710   0.004445   0.602541  -0.049740   0.006489
     5  O    0.545530  -0.087123  -0.017496  -0.049740   7.973992   0.003379
     6  H   -0.052800   0.359843  -0.037875   0.006489   0.003379   0.532152
     7  H   -0.007839  -0.065598   0.308798   0.000937   0.019180   0.006428
               7
     1  C   -0.007839
     2  C   -0.065598
     3  N    0.308798
     4  H    0.000937
     5  O    0.019180
     6  H    0.006428
     7  H    0.396540
 Mulliken charges:
               1
     1  C    0.208755
     2  C   -0.035641
     3  N   -0.470652
     4  H    0.161323
     5  O   -0.387723
     6  H    0.182385
     7  H    0.341554
 Sum of Mulliken charges =  -0.00000
 Mulliken charges with hydrogens summed into heavy atoms:
               1
     1  C    0.370078
     2  C    0.146743
     3  N   -0.129098
     5  O   -0.387723
 Electronic spatial extent (au):  <R**2>=            237.7630
 Charge=              0.0000 electrons
 Dipole moment (field-independent basis, Debye):
    X=              0.5498    Y=              2.0411    Z=             -0.0052  Tot=              2.1138
 Quadrupole moment (field-independent basis, Debye-Ang):
   XX=            -28.9684   YY=            -19.4490   ZZ=            -22.6234
   XY=              2.1738   XZ=             -0.0277   YZ=              0.0349
 Traceless Quadrupole moment (field-independent basis, Debye-Ang):
   XX=             -5.2881   YY=              4.2312   ZZ=              1.0569
   XY=              2.1738   XZ=             -0.0277   YZ=              0.0349
 Octapole moment (field-independent basis, Debye-Ang**2):
  XXX=             11.9699  YYY=             -2.8475  ZZZ=              0.0193  XYY=             -1.8685
  XXY=              4.4332  XXZ=             -0.0067  XZZ=              2.0399  YZZ=             -1.2912
  YYZ=              0.0654  XYZ=             -0.0391
 Hexadecapole moment (field-independent basis, Debye-Ang**3):
 XXXX=           -220.7501 YYYY=            -72.1604 ZZZZ=            -19.4964 XXXY=             -1.1751
 XXXZ=             -0.0079 YYYX=              2.0866 YYYZ=              0.1103 ZZZX=              0.0128
 ZZZY=              0.0041 XXYY=            -40.9095 XXZZ=            -35.3014 YYZZ=            -16.7003
 XXYZ=              0.0810 YYXZ=             -0.0726 ZZXY=             -0.2058
 N-N= 1.066762536201D+02 E-N=-6.990622284467D+02  KE= 2.062048281982D+02
 1\1\GINC-NODE91\SP\RwB97X\6-31G(d)\C2H3N1O1\YANZ\05-Jun-2019\0\\# 6-31
 g(d) wb97x\\tmpdir/M2_conf_2_192.gjf\\0,1\C,0,0.,0.,0.\C,0,1.3969,0.,0
 .\N,0,2.14086,0.,1.10463\H,0,-0.56839,-0.00414,-0.91208\O,0,-0.57142,-
 0.01445,1.08923\H,0,1.94805,-0.02428,-0.93985\H,0,1.68848,-0.00407,1.9
 2278\\Version=ES64L-G16RevA.03\State=1-A\HF=-207.8646671\RMSD=7.853e-0
 9\Dipole=-0.1650195,0.0032217,-0.8150918\Quadrupole=-4.107289,0.785464
 2,3.3218247,-0.0410493,1.1557631,0.0230577\PG=C01 [X(C2H3N1O1)]\\@


 ASKING DUMB QUESTIONS IS EASIER THAN CORECTING DUMB MISTAKES.
 Job cpu time:       0 days  0 hours  0 minutes 17.1 seconds.
 Elapsed time:       0 days  0 hours  0 minutes  8.7 seconds.
 File lengths (MBytes):  RWF=      6 Int=      0 D2E=      0 Chk=      1 Scr=      1
 Normal termination of Gaussian 16 at Wed Jun  5 17:05:13 2019.
