 Entering Gaussian System, Link 0=g16
 Initial command:
 /share/apps/gaussian/g16/l1.exe "/tmp/55477.mgr/Gau-324795.inp" -scrdir="/tmp/55477.mgr/"
 Entering Link 1 = /share/apps/gaussian/g16/l1.exe PID=    324796.
  
 Copyright (c) 1988,1990,1992,1993,1995,1998,2003,2009,2016,
            Gaussian, Inc.  All Rights Reserved.
  
 This is part of the Gaussian(R) 16 program.  It is based on
 the Gaussian(R) 09 system (copyright 2009, Gaussian, Inc.),
 the Gaussian(R) 03 system (copyright 2003, Gaussian, Inc.),
 the Gaussian(R) 98 system (copyright 1998, Gaussian, Inc.),
 the Gaussian(R) 94 system (copyright 1995, Gaussian, Inc.),
 the Gaussian 92(TM) system (copyright 1992, Gaussian, Inc.),
 the Gaussian 90(TM) system (copyright 1990, Gaussian, Inc.),
 the Gaussian 88(TM) system (copyright 1988, Gaussian, Inc.),
 the Gaussian 86(TM) system (copyright 1986, Carnegie Mellon
 University), and the Gaussian 82(TM) system (copyright 1983,
 Carnegie Mellon University). Gaussian is a federally registered
 trademark of Gaussian, Inc.
  
 This software contains proprietary and confidential information,
 including trade secrets, belonging to Gaussian, Inc.
  
 This software is provided under written license and may be
 used, copied, transmitted, or stored only in accord with that
 written license.
  
 The following legend is applicable only to US Government
 contracts under FAR:
  
                    RESTRICTED RIGHTS LEGEND
  
 Use, reproduction and disclosure by the US Government is
 subject to restrictions as set forth in subparagraphs (a)
 and (c) of the Commercial Computer Software - Restricted
 Rights clause in FAR 52.227-19.
  
 Gaussian, Inc.
 340 Quinnipiac St., Bldg. 40, Wallingford CT 06492
  
  
 ---------------------------------------------------------------
 Warning -- This program may not be used in any manner that
 competes with the business of Gaussian, Inc. or will provide
 assistance to any competitor of Gaussian, Inc.  The licensee
 of this program is prohibited from giving any competitor of
 Gaussian, Inc. access to this program.  By using this program,
 the user acknowledges that Gaussian, Inc. is engaged in the
 business of creating and licensing software in the field of
 computational chemistry and represents and warrants to the
 licensee that it is not a competitor of Gaussian, Inc. and that
 it will not use this program in any manner prohibited above.
 ---------------------------------------------------------------
  

 Cite this work as:
 Gaussian 16, Revision A.03,
 M. J. Frisch, G. W. Trucks, H. B. Schlegel, G. E. Scuseria, 
 M. A. Robb, J. R. Cheeseman, G. Scalmani, V. Barone, 
 G. A. Petersson, H. Nakatsuji, X. Li, M. Caricato, A. V. Marenich, 
 J. Bloino, B. G. Janesko, R. Gomperts, B. Mennucci, H. P. Hratchian, 
 J. V. Ortiz, A. F. Izmaylov, J. L. Sonnenberg, D. Williams-Young, 
 F. Ding, F. Lipparini, F. Egidi, J. Goings, B. Peng, A. Petrone, 
 T. Henderson, D. Ranasinghe, V. G. Zakrzewski, J. Gao, N. Rega, 
 G. Zheng, W. Liang, M. Hada, M. Ehara, K. Toyota, R. Fukuda, 
 J. Hasegawa, M. Ishida, T. Nakajima, Y. Honda, O. Kitao, H. Nakai, 
 T. Vreven, K. Throssell, J. A. Montgomery, Jr., J. E. Peralta, 
 F. Ogliaro, M. J. Bearpark, J. J. Heyd, E. N. Brothers, K. N. Kudin, 
 V. N. Staroverov, T. A. Keith, R. Kobayashi, J. Normand, 
 K. Raghavachari, A. P. Rendell, J. C. Burant, S. S. Iyengar, 
 J. Tomasi, M. Cossi, J. M. Millam, M. Klene, C. Adamo, R. Cammi, 
 J. W. Ochterski, R. L. Martin, K. Morokuma, O. Farkas, 
 J. B. Foresman, and D. J. Fox, Gaussian, Inc., Wallingford CT, 2016.
 
 ******************************************
 Gaussian 16:  ES64L-G16RevA.03 25-Dec-2016
                 5-Jun-2019 
 ******************************************
 %nprocshared=2
 Will use up to    2 processors via shared memory.
 %mem=2GB
 ----------------
 # 6-31g(d) wb97x
 ----------------
 1/38=1,172=1/1;
 2/12=2,17=6,18=5,40=1/2;
 3/5=1,6=6,7=1,11=2,25=1,30=1,74=-57/1,2,3;
 4//1;
 5/5=2,38=5/2;
 6/7=2,8=2,9=2,10=2,28=1/1;
 99/5=1,9=1/99;
 ------------------------
 tmpdir/M2_conf_1_171.gjf
 ------------------------
 Symbolic Z-matrix:
 Charge =  0 Multiplicity = 1
 C                     0.        0.        0. 
 C                     1.4847    0.        0. 
 C                     2.23604   0.        1.17574 
 H                    -0.46558  -0.35764   0.87463 
 O                    -0.66004   0.40033  -0.95515 
 H                     2.01951  -0.01558  -0.85806 
 H                     1.74765   0.00554   2.1447 
 H                     3.23774  -0.00691   1.10974 
 
                          Input orientation:                          
 ---------------------------------------------------------------------
 Center     Atomic      Atomic             Coordinates (Angstroms)
 Number     Number       Type             X           Y           Z
 ---------------------------------------------------------------------
      1          6           0        0.000000    0.000000    0.000000
      2          6           0        1.484700    0.000000    0.000000
      3          6           0        2.236040    0.000000    1.175740
      4          1           0       -0.465580   -0.357640    0.874630
      5          8           0       -0.660040    0.400330   -0.955150
      6          1           0        2.019510   -0.015580   -0.858060
      7          1           0        1.747650    0.005540    2.144700
      8          1           0        3.237740   -0.006910    1.109740
 ---------------------------------------------------------------------
                    Distance matrix (angstroms):
                    1          2          3          4          5
     1  C    0.000000
     2  C    1.484700   0.000000
     3  C    2.526309   1.395305   0.000000
     4  H    1.053399   2.167135   2.741774   0.000000
     5  O    1.228100   2.381698   3.617767   1.990082   0.000000
     6  H    2.194295   1.011203   2.045353   3.048753   2.713374
     7  H    2.766595   2.160766   1.085099   2.577473   3.944857
     8  H    3.422650   2.074782   1.003896   3.727314   4.429707
                    6          7          8
     6  H    0.000000
     7  H    3.015116   0.000000
     8  H    2.314389   1.814295   0.000000
 Stoichiometry    C3H4O
 Framework group  C1[X(C3H4O)]
 Deg. of freedom    18
 Full point group                 C1      NOp   1
 Largest Abelian subgroup         C1      NOp   1
 Largest concise Abelian subgroup C1      NOp   1
                         Standard orientation:                         
 ---------------------------------------------------------------------
 Center     Atomic      Atomic             Coordinates (Angstroms)
 Number     Number       Type             X           Y           Z
 ---------------------------------------------------------------------
      1          6           0       -0.702112    0.357495    0.118765
      2          6           0        0.550685   -0.438914    0.094944
      3          6           0        1.806570    0.141406   -0.086327
      4          1           0       -0.599931    1.379143    0.354226
      5          8           0       -1.800556   -0.132526   -0.129287
      6          1           0        0.549507   -1.441682    0.225273
      7          1           0        1.906487    1.213161   -0.223429
      8          1           0        2.617525   -0.450336   -0.086063
 ---------------------------------------------------------------------
 Rotational constants (GHZ):          46.2848305           4.4990900           4.1587654
 Standard basis: 6-31G(d) (6D, 7F)
 There are    68 symmetry adapted cartesian basis functions of A   symmetry.
 There are    68 symmetry adapted basis functions of A   symmetry.
    68 basis functions,   128 primitive gaussians,    68 cartesian basis functions
    15 alpha electrons       15 beta electrons
       nuclear repulsion energy       102.2670528962 Hartrees.
 NAtoms=    8 NActive=    8 NUniq=    8 SFac= 1.00D+00 NAtFMM=   60 NAOKFM=F Big=F
 Integral buffers will be    131072 words long.
 Raffenetti 2 integral format.
 Two-electron integral symmetry is turned on.
 One-electron integrals computed using PRISM.
 NBasis=    68 RedAO= T EigKep=  4.56D-03  NBF=    68
 NBsUse=    68 1.00D-06 EigRej= -1.00D+00 NBFU=    68
 ExpMin= 1.61D-01 ExpMax= 5.48D+03 ExpMxC= 8.25D+02 IAcc=3 IRadAn=         5 AccDes= 0.00D+00
 Harris functional with IExCor= 4538 and IRadAn=       5 diagonalized for initial guess.
 HarFok:  IExCor= 4538 AccDes= 0.00D+00 IRadAn=         5 IDoV= 1 UseB2=F ITyADJ=14
 ICtDFT=  3500011 ScaDFX=  1.000000  1.000000  1.000000  1.000000
 FoFCou: FMM=F IPFlag=           0 FMFlag=      100000 FMFlg1=           0
         NFxFlg=           0 DoJE=T BraDBF=F KetDBF=T FulRan=T
         wScrn=  0.000000 ICntrl=       500 IOpCl=  0 I1Cent=   200000004 NGrid=           0
         NMat0=    1 NMatS0=      1 NMatT0=    0 NMatD0=    1 NMtDS0=    0 NMtDT0=    0
 Petite list used in FoFCou.
 Keep R1 ints in memory in canonical form, NReq=7290824.
 Requested convergence on RMS density matrix=1.00D-08 within 128 cycles.
 Requested convergence on MAX density matrix=1.00D-06.
 Requested convergence on             energy=1.00D-06.
 No special actions if energy rises.
 Integral accuracy reduced to 1.0D-05 until final iterations.
 Initial convergence to 1.0D-05 achieved.  Increase integral accuracy.
 SCF Done:  E(RwB97X) =  -191.834796751     A.U. after   16 cycles
            NFock= 16  Conv=0.94D-08     -V/T= 2.0086

 **********************************************************************

            Population analysis using the SCF density.

 **********************************************************************

 Orbital symmetries:
       Occupied  (A) (A) (A) (A) (A) (A) (A) (A) (A) (A) (A) (A)
                 (A) (A) (A)
       Virtual   (A) (A) (A) (A) (A) (A) (A) (A) (A) (A) (A) (A)
                 (A) (A) (A) (A) (A) (A) (A) (A) (A) (A) (A) (A)
                 (A) (A) (A) (A) (A) (A) (A) (A) (A) (A) (A) (A)
                 (A) (A) (A) (A) (A) (A) (A) (A) (A) (A) (A) (A)
                 (A) (A) (A) (A) (A)
 The electronic state is 1-A.
 Alpha  occ. eigenvalues --  -19.21618 -10.36278 -10.30007 -10.29185  -1.16223
 Alpha  occ. eigenvalues --   -0.92453  -0.78059  -0.70719  -0.60207  -0.58084
 Alpha  occ. eigenvalues --   -0.52693  -0.51486  -0.49276  -0.37778  -0.36087
 Alpha virt. eigenvalues --    0.02011   0.14059   0.21446   0.23595   0.25779
 Alpha virt. eigenvalues --    0.30314   0.35577   0.39620   0.44255   0.61525
 Alpha virt. eigenvalues --    0.63591   0.64862   0.68905   0.71018   0.74363
 Alpha virt. eigenvalues --    0.76026   0.78108   0.92167   0.96135   0.98363
 Alpha virt. eigenvalues --    1.03015   1.04672   1.07202   1.09447   1.14305
 Alpha virt. eigenvalues --    1.16762   1.23845   1.35466   1.49973   1.52787
 Alpha virt. eigenvalues --    1.62904   1.65854   1.75582   1.85222   1.91932
 Alpha virt. eigenvalues --    1.94352   2.05544   2.09149   2.13674   2.22799
 Alpha virt. eigenvalues --    2.30616   2.40598   2.45786   2.52762   2.66354
 Alpha virt. eigenvalues --    2.70668   2.92876   3.02441   3.10143   3.92370
 Alpha virt. eigenvalues --    4.16745   4.28235   4.51512
          Condensed to atoms (all electrons):
               1          2          3          4          5          6
     1  C    4.563894   0.353685  -0.016291   0.372912   0.536033  -0.026218
     2  C    0.353685   5.125877   0.553020  -0.111264  -0.066553   0.385417
     3  C   -0.016291   0.553020   5.066575   0.009233   0.002993  -0.042459
     4  H    0.372912  -0.111264   0.009233   0.626949  -0.048937   0.003814
     5  O    0.536033  -0.066553   0.002993  -0.048937   7.976976  -0.000347
     6  H   -0.026218   0.385417  -0.042459   0.003814  -0.000347   0.492725
     7  H   -0.003856  -0.039325   0.381759   0.004146   0.000050   0.003899
     8  H    0.002241  -0.024027   0.387649  -0.000115  -0.000061  -0.004759
               7          8
     1  C   -0.003856   0.002241
     2  C   -0.039325  -0.024027
     3  C    0.381759   0.387649
     4  H    0.004146  -0.000115
     5  O    0.000050  -0.000061
     6  H    0.003899  -0.004759
     7  H    0.503719  -0.029761
     8  H   -0.029761   0.477525
 Mulliken charges:
               1
     1  C    0.217599
     2  C   -0.176832
     3  C   -0.342479
     4  H    0.143261
     5  O   -0.400154
     6  H    0.187927
     7  H    0.179369
     8  H    0.191309
 Sum of Mulliken charges =  -0.00000
 Mulliken charges with hydrogens summed into heavy atoms:
               1
     1  C    0.360860
     2  C    0.011096
     3  C    0.028198
     5  O   -0.400154
 Electronic spatial extent (au):  <R**2>=            302.7166
 Charge=             -0.0000 electrons
 Dipole moment (field-independent basis, Debye):
    X=              3.0742    Y=              0.7448    Z=              0.4668  Tot=              3.1974
 Quadrupole moment (field-independent basis, Debye-Ang):
   XX=            -26.3405   YY=            -21.0813   ZZ=            -24.3233
   XY=             -1.1047   XZ=             -0.9651   YZ=             -0.3222
 Traceless Quadrupole moment (field-independent basis, Debye-Ang):
   XX=             -2.4255   YY=              2.8338   ZZ=             -0.4083
   XY=             -1.1047   XZ=             -0.9651   YZ=             -0.3222
 Octapole moment (field-independent basis, Debye-Ang**2):
  XXX=             12.4224  YYY=             -0.1310  ZZZ=             -0.3029  XYY=             -0.1661
  XXY=              0.2563  XXZ=              0.2661  XZZ=             -4.3015  YZZ=              0.0815
  YYZ=              0.3478  XYZ=             -0.4110
 Hexadecapole moment (field-independent basis, Debye-Ang**3):
 XXXX=           -299.0531 YYYY=            -49.9759 ZZZZ=            -25.3620 XXXY=             -3.4682
 XXXZ=             -2.4475 YYYX=             -0.0314 YYYZ=             -0.6659 ZZZX=              0.7584
 ZZZY=             -0.0818 XXYY=            -55.5012 XXZZ=            -55.6308 YYZZ=            -13.6359
 XXYZ=             -0.7498 YYXZ=             -0.3192 ZZXY=              0.1553
 N-N= 1.022670528962D+02 E-N=-6.518278929066D+02  KE= 1.902025792489D+02
 1\1\GINC-NODE91\SP\RwB97X\6-31G(d)\C3H4O1\YANZ\05-Jun-2019\0\\# 6-31g(
 d) wb97x\\tmpdir/M2_conf_1_171.gjf\\0,1\C,0,0.,0.,0.\C,0,1.4847,0.,0.\
 C,0,2.23604,0.,1.17574\H,0,-0.46558,-0.35764,0.87463\O,0,-0.66004,0.40
 033,-0.95515\H,0,2.01951,-0.01558,-0.85806\H,0,1.74765,0.00554,2.1447\
 H,0,3.23774,-0.00691,1.10974\\Version=ES64L-G16RevA.03\State=1-A\HF=-1
 91.8347968\RMSD=9.393e-09\Dipole=0.8604163,-0.3244345,0.8584\Quadrupol
 e=0.0809732,-0.4841397,0.4031665,0.7695223,-2.0193835,0.5159771\PG=C01
  [X(C3H4O1)]\\@


 THERE IS SOMETHING FASCINATING ABOUT SCIENCE.
 ONE GETS SUCH WHOLESALE CONJECTURE OUT OF SUCH TRIFLING INVESTMENTS.

                                                       -- MARK TWAIN
 Job cpu time:       0 days  0 hours  0 minutes 19.6 seconds.
 Elapsed time:       0 days  0 hours  0 minutes  9.9 seconds.
 File lengths (MBytes):  RWF=      6 Int=      0 D2E=      0 Chk=      1 Scr=      1
 Normal termination of Gaussian 16 at Wed Jun  5 17:02:51 2019.
