 Entering Gaussian System, Link 0=g16
 Initial command:
 /share/apps/gaussian/g16/l1.exe "/tmp/55477.mgr/Gau-320789.inp" -scrdir="/tmp/55477.mgr/"
 Entering Link 1 = /share/apps/gaussian/g16/l1.exe PID=    320790.
  
 Copyright (c) 1988,1990,1992,1993,1995,1998,2003,2009,2016,
            Gaussian, Inc.  All Rights Reserved.
  
 This is part of the Gaussian(R) 16 program.  It is based on
 the Gaussian(R) 09 system (copyright 2009, Gaussian, Inc.),
 the Gaussian(R) 03 system (copyright 2003, Gaussian, Inc.),
 the Gaussian(R) 98 system (copyright 1998, Gaussian, Inc.),
 the Gaussian(R) 94 system (copyright 1995, Gaussian, Inc.),
 the Gaussian 92(TM) system (copyright 1992, Gaussian, Inc.),
 the Gaussian 90(TM) system (copyright 1990, Gaussian, Inc.),
 the Gaussian 88(TM) system (copyright 1988, Gaussian, Inc.),
 the Gaussian 86(TM) system (copyright 1986, Carnegie Mellon
 University), and the Gaussian 82(TM) system (copyright 1983,
 Carnegie Mellon University). Gaussian is a federally registered
 trademark of Gaussian, Inc.
  
 This software contains proprietary and confidential information,
 including trade secrets, belonging to Gaussian, Inc.
  
 This software is provided under written license and may be
 used, copied, transmitted, or stored only in accord with that
 written license.
  
 The following legend is applicable only to US Government
 contracts under FAR:
  
                    RESTRICTED RIGHTS LEGEND
  
 Use, reproduction and disclosure by the US Government is
 subject to restrictions as set forth in subparagraphs (a)
 and (c) of the Commercial Computer Software - Restricted
 Rights clause in FAR 52.227-19.
  
 Gaussian, Inc.
 340 Quinnipiac St., Bldg. 40, Wallingford CT 06492
  
  
 ---------------------------------------------------------------
 Warning -- This program may not be used in any manner that
 competes with the business of Gaussian, Inc. or will provide
 assistance to any competitor of Gaussian, Inc.  The licensee
 of this program is prohibited from giving any competitor of
 Gaussian, Inc. access to this program.  By using this program,
 the user acknowledges that Gaussian, Inc. is engaged in the
 business of creating and licensing software in the field of
 computational chemistry and represents and warrants to the
 licensee that it is not a competitor of Gaussian, Inc. and that
 it will not use this program in any manner prohibited above.
 ---------------------------------------------------------------
  

 Cite this work as:
 Gaussian 16, Revision A.03,
 M. J. Frisch, G. W. Trucks, H. B. Schlegel, G. E. Scuseria, 
 M. A. Robb, J. R. Cheeseman, G. Scalmani, V. Barone, 
 G. A. Petersson, H. Nakatsuji, X. Li, M. Caricato, A. V. Marenich, 
 J. Bloino, B. G. Janesko, R. Gomperts, B. Mennucci, H. P. Hratchian, 
 J. V. Ortiz, A. F. Izmaylov, J. L. Sonnenberg, D. Williams-Young, 
 F. Ding, F. Lipparini, F. Egidi, J. Goings, B. Peng, A. Petrone, 
 T. Henderson, D. Ranasinghe, V. G. Zakrzewski, J. Gao, N. Rega, 
 G. Zheng, W. Liang, M. Hada, M. Ehara, K. Toyota, R. Fukuda, 
 J. Hasegawa, M. Ishida, T. Nakajima, Y. Honda, O. Kitao, H. Nakai, 
 T. Vreven, K. Throssell, J. A. Montgomery, Jr., J. E. Peralta, 
 F. Ogliaro, M. J. Bearpark, J. J. Heyd, E. N. Brothers, K. N. Kudin, 
 V. N. Staroverov, T. A. Keith, R. Kobayashi, J. Normand, 
 K. Raghavachari, A. P. Rendell, J. C. Burant, S. S. Iyengar, 
 J. Tomasi, M. Cossi, J. M. Millam, M. Klene, C. Adamo, R. Cammi, 
 J. W. Ochterski, R. L. Martin, K. Morokuma, O. Farkas, 
 J. B. Foresman, and D. J. Fox, Gaussian, Inc., Wallingford CT, 2016.
 
 ******************************************
 Gaussian 16:  ES64L-G16RevA.03 25-Dec-2016
                 5-Jun-2019 
 ******************************************
 %nprocshared=2
 Will use up to    2 processors via shared memory.
 %mem=2GB
 ----------------
 # 6-31g(d) wb97x
 ----------------
 1/38=1,172=1/1;
 2/12=2,17=6,18=5,40=1/2;
 3/5=1,6=6,7=1,11=2,25=1,30=1,74=-57/1,2,3;
 4//1;
 5/5=2,38=5/2;
 6/7=2,8=2,9=2,10=2,28=1/1;
 99/5=1,9=1/99;
 -----------------------
 tmpdir/M2_conf_0_66.gjf
 -----------------------
 Symbolic Z-matrix:
 Charge =  0 Multiplicity = 1
 C                     0.        0.        0. 
 C                     1.5147    0.        0. 
 C                     2.27056   0.        1.17331 
 H                    -0.44633  -0.6316    0.83876 
 H                    -0.3673   -0.31782  -0.99586 
 H                    -0.34638   1.03272   0.1422 
 O                     2.14267   0.04669  -1.05659 
 H                     1.75227  -0.0391    2.12788 
 O                     3.49395   0.03883   1.12646 
 
                          Input orientation:                          
 ---------------------------------------------------------------------
 Center     Atomic      Atomic             Coordinates (Angstroms)
 Number     Number       Type             X           Y           Z
 ---------------------------------------------------------------------
      1          6           0        0.000000    0.000000    0.000000
      2          6           0        1.514700    0.000000    0.000000
      3          6           0        2.270560    0.000000    1.173310
      4          1           0       -0.446330   -0.631600    0.838760
      5          1           0       -0.367300   -0.317820   -0.995860
      6          1           0       -0.346380    1.032720    0.142200
      7          8           0        2.142670    0.046690   -1.056590
      8          1           0        1.752270   -0.039100    2.127880
      9          8           0        3.493950    0.038830    1.126460
 ---------------------------------------------------------------------
                    Distance matrix (angstroms):
                    1          2          3          4          5
     1  C    0.000000
     2  C    1.514700   0.000000
     3  C    2.555797   1.395701   0.000000
     4  H    1.140898   2.224427   2.809330   0.000000
     5  H    1.107996   2.152829   3.429958   1.862937   0.000000
     6  H    1.098504   2.133155   2.996343   1.806972   1.766232
     7  O    2.389476   1.230004   2.234052   3.279535   2.537027
     8  H    2.756783   2.141458   1.086903   2.616625   3.785236
     9  O    3.671254   2.277685   1.224902   4.007250   4.420486
                    6          7          8          9
     6  H    0.000000
     7  O    2.933381   0.000000
     8  H    3.081567   3.209458   0.000000
     9  O    4.087141   2.567436   2.010563   0.000000
 Stoichiometry    C3H4O2
 Framework group  C1[X(C3H4O2)]
 Deg. of freedom    21
 Full point group                 C1      NOp   1
 Largest Abelian subgroup         C1      NOp   1
 Largest concise Abelian subgroup C1      NOp   1
                         Standard orientation:                         
 ---------------------------------------------------------------------
 Center     Atomic      Atomic             Coordinates (Angstroms)
 Number     Number       Type             X           Y           Z
 ---------------------------------------------------------------------
      1          6           0       -1.750112   -0.492424    0.002559
      2          6           0       -0.364182    0.118310   -0.020190
      3          6           0        0.800790   -0.650229   -0.007155
      4          1           0       -1.823486   -1.455494   -0.604697
      5          1           0       -2.489668    0.262489   -0.330339
      6          1           0       -2.004142   -0.736268    1.043097
      7          8           0       -0.215626    1.339214   -0.004907
      8          1           0        0.711471   -1.733395   -0.018618
      9          8           0        1.901482   -0.113123    0.012315
 ---------------------------------------------------------------------
 Rotational constants (GHZ):          11.4495131           4.2110994           3.1393069
 Standard basis: 6-31G(d) (6D, 7F)
 There are    83 symmetry adapted cartesian basis functions of A   symmetry.
 There are    83 symmetry adapted basis functions of A   symmetry.
    83 basis functions,   156 primitive gaussians,    83 cartesian basis functions
    19 alpha electrons       19 beta electrons
       nuclear repulsion energy       162.1974155394 Hartrees.
 NAtoms=    9 NActive=    9 NUniq=    9 SFac= 1.00D+00 NAtFMM=   60 NAOKFM=F Big=F
 Integral buffers will be    131072 words long.
 Raffenetti 2 integral format.
 Two-electron integral symmetry is turned on.
 One-electron integrals computed using PRISM.
 NBasis=    83 RedAO= T EigKep=  2.27D-03  NBF=    83
 NBsUse=    83 1.00D-06 EigRej= -1.00D+00 NBFU=    83
 ExpMin= 1.61D-01 ExpMax= 5.48D+03 ExpMxC= 8.25D+02 IAcc=3 IRadAn=         5 AccDes= 0.00D+00
 Harris functional with IExCor= 4538 and IRadAn=       5 diagonalized for initial guess.
 HarFok:  IExCor= 4538 AccDes= 0.00D+00 IRadAn=         5 IDoV= 1 UseB2=F ITyADJ=14
 ICtDFT=  3500011 ScaDFX=  1.000000  1.000000  1.000000  1.000000
 FoFCou: FMM=F IPFlag=           0 FMFlag=      100000 FMFlg1=           0
         NFxFlg=           0 DoJE=T BraDBF=F KetDBF=T FulRan=T
         wScrn=  0.000000 ICntrl=       500 IOpCl=  0 I1Cent=   200000004 NGrid=           0
         NMat0=    1 NMatS0=      1 NMatT0=    0 NMatD0=    1 NMtDS0=    0 NMtDT0=    0
 Petite list used in FoFCou.
 Keep R1 ints in memory in canonical form, NReq=13965830.
 Requested convergence on RMS density matrix=1.00D-08 within 128 cycles.
 Requested convergence on MAX density matrix=1.00D-06.
 Requested convergence on             energy=1.00D-06.
 No special actions if energy rises.
 Integral accuracy reduced to 1.0D-05 until final iterations.
 Initial convergence to 1.0D-05 achieved.  Increase integral accuracy.
 SCF Done:  E(RwB97X) =  -267.054011393     A.U. after   17 cycles
            NFock= 17  Conv=0.38D-08     -V/T= 2.0084

 **********************************************************************

            Population analysis using the SCF density.

 **********************************************************************

 Orbital symmetries:
       Occupied  (A) (A) (A) (A) (A) (A) (A) (A) (A) (A) (A) (A)
                 (A) (A) (A) (A) (A) (A) (A)
       Virtual   (A) (A) (A) (A) (A) (A) (A) (A) (A) (A) (A) (A)
                 (A) (A) (A) (A) (A) (A) (A) (A) (A) (A) (A) (A)
                 (A) (A) (A) (A) (A) (A) (A) (A) (A) (A) (A) (A)
                 (A) (A) (A) (A) (A) (A) (A) (A) (A) (A) (A) (A)
                 (A) (A) (A) (A) (A) (A) (A) (A) (A) (A) (A) (A)
                 (A) (A) (A) (A)
 The electronic state is 1-A.
 Alpha  occ. eigenvalues --  -19.24648 -19.23374 -10.37584 -10.37288 -10.30169
 Alpha  occ. eigenvalues --   -1.20920  -1.16439  -0.91239  -0.82371  -0.67336
 Alpha  occ. eigenvalues --   -0.62046  -0.58388  -0.58237  -0.53353  -0.52332
 Alpha  occ. eigenvalues --   -0.51786  -0.45911  -0.39678  -0.37023
 Alpha virt. eigenvalues --   -0.02277   0.14128   0.18246   0.22462   0.23242
 Alpha virt. eigenvalues --    0.25903   0.30823   0.31946   0.44351   0.49711
 Alpha virt. eigenvalues --    0.58750   0.59196   0.66979   0.68000   0.73637
 Alpha virt. eigenvalues --    0.75101   0.78566   0.80960   0.83548   0.87642
 Alpha virt. eigenvalues --    0.92740   0.95733   0.96738   0.99273   1.02581
 Alpha virt. eigenvalues --    1.05820   1.08683   1.11102   1.13565   1.23156
 Alpha virt. eigenvalues --    1.29252   1.31128   1.40105   1.48533   1.62723
 Alpha virt. eigenvalues --    1.62834   1.76569   1.80527   1.84622   1.85305
 Alpha virt. eigenvalues --    1.92038   1.95330   1.99980   2.05152   2.11292
 Alpha virt. eigenvalues --    2.14313   2.17928   2.23178   2.29642   2.42632
 Alpha virt. eigenvalues --    2.48169   2.54703   2.56988   2.70846   2.77797
 Alpha virt. eigenvalues --    2.91071   3.00313   3.07701   3.30466   3.82703
 Alpha virt. eigenvalues --    4.14043   4.25447   4.36594   4.64042
          Condensed to atoms (all electrons):
               1          2          3          4          5          6
     1  C    5.354230   0.301057  -0.097395   0.354634   0.367582   0.363636
     2  C    0.301057   4.773886   0.204253  -0.024990  -0.021546  -0.022286
     3  C   -0.097395   0.204253   4.875029   0.005653   0.003711   0.002029
     4  H    0.354634  -0.024990   0.005653   0.526018  -0.016345  -0.022389
     5  H    0.367582  -0.021546   0.003711  -0.016345   0.466731  -0.018734
     6  H    0.363636  -0.022286   0.002029  -0.022389  -0.018734   0.493289
     7  O   -0.080374   0.575471  -0.083131   0.002140   0.003692  -0.000353
     8  H    0.012620  -0.107475   0.370012   0.000742  -0.000188  -0.000095
     9  O    0.003607  -0.071325   0.551995   0.000028  -0.000049  -0.000050
               7          8          9
     1  C   -0.080374   0.012620   0.003607
     2  C    0.575471  -0.107475  -0.071325
     3  C   -0.083131   0.370012   0.551995
     4  H    0.002140   0.000742   0.000028
     5  H    0.003692  -0.000188  -0.000049
     6  H   -0.000353  -0.000095  -0.000050
     7  O    7.970806   0.003901  -0.007722
     8  H    0.003901   0.624390  -0.048271
     9  O   -0.007722  -0.048271   7.907526
 Mulliken charges:
               1
     1  C   -0.579598
     2  C    0.392955
     3  C    0.167843
     4  H    0.174509
     5  H    0.215145
     6  H    0.204953
     7  O   -0.384431
     8  H    0.144364
     9  O   -0.335740
 Sum of Mulliken charges =  -0.00000
 Mulliken charges with hydrogens summed into heavy atoms:
               1
     1  C    0.015009
     2  C    0.392955
     3  C    0.312207
     7  O   -0.384431
     9  O   -0.335740
 Electronic spatial extent (au):  <R**2>=            394.9697
 Charge=             -0.0000 electrons
 Dipole moment (field-independent basis, Debye):
    X=             -2.7793    Y=             -3.1726    Z=              0.0648  Tot=              4.2183
 Quadrupole moment (field-independent basis, Debye-Ang):
   XX=            -31.2901   YY=            -30.1277   ZZ=            -27.0151
   XY=              0.0746   XZ=             -0.2698   YZ=             -0.0110
 Traceless Quadrupole moment (field-independent basis, Debye-Ang):
   XX=             -1.8124   YY=             -0.6501   ZZ=              2.4625
   XY=              0.0746   XZ=             -0.2698   YZ=             -0.0110
 Octapole moment (field-independent basis, Debye-Ang**2):
  XXX=             -9.2757  YYY=             -2.7995  ZZZ=              0.9491  XYY=              2.7129
  XXY=              1.8388  XXZ=              0.1970  XZZ=              1.7937  YZZ=              1.1464
  YYZ=             -0.5455  XYZ=              0.2681
 Hexadecapole moment (field-independent basis, Debye-Ang**3):
 XXXX=           -334.3929 YYYY=           -130.8696 ZZZZ=            -29.2599 XXXY=             -2.7224
 XXXZ=             -0.2979 YYYX=             -1.3361 YYYZ=              1.2082 ZZZX=             -1.8854
 ZZZY=             -0.6716 XXYY=            -74.3577 XXZZ=            -55.8467 YYZZ=            -25.5832
 XXYZ=             -0.9705 YYXZ=              0.9503 ZZXY=              0.1931
 N-N= 1.621974155394D+02 E-N=-9.491976641021D+02  KE= 2.648192962709D+02
 1\1\GINC-NODE91\SP\RwB97X\6-31G(d)\C3H4O2\YANZ\05-Jun-2019\0\\# 6-31g(
 d) wb97x\\tmpdir/M2_conf_0_66.gjf\\0,1\C,0,0.,0.,0.\C,0,1.5147,0.,0.\C
 ,0,2.27056,0.,1.17331\H,0,-0.44633,-0.6316,0.83876\H,0,-0.3673,-0.3178
 2,-0.99586\H,0,-0.34638,1.03272,0.1422\O,0,2.14267,0.04669,-1.05659\H,
 0,1.75227,-0.0391,2.12788\O,0,3.49395,0.03883,1.12646\\Version=ES64L-G
 16RevA.03\State=1-A\HF=-267.0540114\RMSD=3.844e-09\Dipole=-1.5041499,-
 0.0116914,0.7011898\Quadrupole=-1.1597648,1.8267247,-0.66696,-0.224308
 1,-0.3598868,-0.0269643\PG=C01 [X(C3H4O2)]\\@


 In the race for quality, there is no finish line.
                               -- David T. Kearns
 Job cpu time:       0 days  0 hours  0 minutes 29.7 seconds.
 Elapsed time:       0 days  0 hours  0 minutes 15.1 seconds.
 File lengths (MBytes):  RWF=      6 Int=      0 D2E=      0 Chk=      2 Scr=      1
 Normal termination of Gaussian 16 at Wed Jun  5 16:59:47 2019.
