 Entering Gaussian System, Link 0=g16
 Initial command:
 /share/apps/gaussian/g16/l1.exe "/tmp/55477.mgr/Gau-327179.inp" -scrdir="/tmp/55477.mgr/"
 Entering Link 1 = /share/apps/gaussian/g16/l1.exe PID=    327180.
  
 Copyright (c) 1988,1990,1992,1993,1995,1998,2003,2009,2016,
            Gaussian, Inc.  All Rights Reserved.
  
 This is part of the Gaussian(R) 16 program.  It is based on
 the Gaussian(R) 09 system (copyright 2009, Gaussian, Inc.),
 the Gaussian(R) 03 system (copyright 2003, Gaussian, Inc.),
 the Gaussian(R) 98 system (copyright 1998, Gaussian, Inc.),
 the Gaussian(R) 94 system (copyright 1995, Gaussian, Inc.),
 the Gaussian 92(TM) system (copyright 1992, Gaussian, Inc.),
 the Gaussian 90(TM) system (copyright 1990, Gaussian, Inc.),
 the Gaussian 88(TM) system (copyright 1988, Gaussian, Inc.),
 the Gaussian 86(TM) system (copyright 1986, Carnegie Mellon
 University), and the Gaussian 82(TM) system (copyright 1983,
 Carnegie Mellon University). Gaussian is a federally registered
 trademark of Gaussian, Inc.
  
 This software contains proprietary and confidential information,
 including trade secrets, belonging to Gaussian, Inc.
  
 This software is provided under written license and may be
 used, copied, transmitted, or stored only in accord with that
 written license.
  
 The following legend is applicable only to US Government
 contracts under FAR:
  
                    RESTRICTED RIGHTS LEGEND
  
 Use, reproduction and disclosure by the US Government is
 subject to restrictions as set forth in subparagraphs (a)
 and (c) of the Commercial Computer Software - Restricted
 Rights clause in FAR 52.227-19.
  
 Gaussian, Inc.
 340 Quinnipiac St., Bldg. 40, Wallingford CT 06492
  
  
 ---------------------------------------------------------------
 Warning -- This program may not be used in any manner that
 competes with the business of Gaussian, Inc. or will provide
 assistance to any competitor of Gaussian, Inc.  The licensee
 of this program is prohibited from giving any competitor of
 Gaussian, Inc. access to this program.  By using this program,
 the user acknowledges that Gaussian, Inc. is engaged in the
 business of creating and licensing software in the field of
 computational chemistry and represents and warrants to the
 licensee that it is not a competitor of Gaussian, Inc. and that
 it will not use this program in any manner prohibited above.
 ---------------------------------------------------------------
  

 Cite this work as:
 Gaussian 16, Revision A.03,
 M. J. Frisch, G. W. Trucks, H. B. Schlegel, G. E. Scuseria, 
 M. A. Robb, J. R. Cheeseman, G. Scalmani, V. Barone, 
 G. A. Petersson, H. Nakatsuji, X. Li, M. Caricato, A. V. Marenich, 
 J. Bloino, B. G. Janesko, R. Gomperts, B. Mennucci, H. P. Hratchian, 
 J. V. Ortiz, A. F. Izmaylov, J. L. Sonnenberg, D. Williams-Young, 
 F. Ding, F. Lipparini, F. Egidi, J. Goings, B. Peng, A. Petrone, 
 T. Henderson, D. Ranasinghe, V. G. Zakrzewski, J. Gao, N. Rega, 
 G. Zheng, W. Liang, M. Hada, M. Ehara, K. Toyota, R. Fukuda, 
 J. Hasegawa, M. Ishida, T. Nakajima, Y. Honda, O. Kitao, H. Nakai, 
 T. Vreven, K. Throssell, J. A. Montgomery, Jr., J. E. Peralta, 
 F. Ogliaro, M. J. Bearpark, J. J. Heyd, E. N. Brothers, K. N. Kudin, 
 V. N. Staroverov, T. A. Keith, R. Kobayashi, J. Normand, 
 K. Raghavachari, A. P. Rendell, J. C. Burant, S. S. Iyengar, 
 J. Tomasi, M. Cossi, J. M. Millam, M. Klene, C. Adamo, R. Cammi, 
 J. W. Ochterski, R. L. Martin, K. Morokuma, O. Farkas, 
 J. B. Foresman, and D. J. Fox, Gaussian, Inc., Wallingford CT, 2016.
 
 ******************************************
 Gaussian 16:  ES64L-G16RevA.03 25-Dec-2016
                 5-Jun-2019 
 ******************************************
 %nprocshared=2
 Will use up to    2 processors via shared memory.
 %mem=2GB
 ----------------
 # 6-31g(d) wb97x
 ----------------
 1/38=1,172=1/1;
 2/12=2,17=6,18=5,40=1/2;
 3/5=1,6=6,7=1,11=2,25=1,30=1,74=-57/1,2,3;
 4//1;
 5/5=2,38=5/2;
 6/7=2,8=2,9=2,10=2,28=1/1;
 99/5=1,9=1/99;
 ------------------------
 tmpdir/M2_conf_2_151.gjf
 ------------------------
 Symbolic Z-matrix:
 Charge =  0 Multiplicity = 1
 N                     0.        0.        0. 
 C                     1.3459    0.        0. 
 O                    -0.52897   0.       -1.03192 
 O                     1.98319   0.0077   -1.04978 
 H                     1.82089   0.00118   0.96403 
 
                          Input orientation:                          
 ---------------------------------------------------------------------
 Center     Atomic      Atomic             Coordinates (Angstroms)
 Number     Number       Type             X           Y           Z
 ---------------------------------------------------------------------
      1          7           0        0.000000    0.000000    0.000000
      2          6           0        1.345900    0.000000    0.000000
      3          8           0       -0.528970    0.000000   -1.031920
      4          8           0        1.983190    0.007700   -1.049780
      5          1           0        1.820890    0.001180    0.964030
 ---------------------------------------------------------------------
                    Distance matrix (angstroms):
                    1          2          3          4          5
     1  N    0.000000
     2  C    1.345900   0.000000
     3  O    1.159598   2.140093   0.000000
     4  O    2.243912   1.228103   2.512235   0.000000
     5  H    2.060339   1.074696   3.083125   2.020350   0.000000
 Stoichiometry    CHNO2
 Framework group  C1[X(CHNO2)]
 Deg. of freedom     9
 Full point group                 C1      NOp   1
 Largest Abelian subgroup         C1      NOp   1
 Largest concise Abelian subgroup C1      NOp   1
                         Standard orientation:                         
 ---------------------------------------------------------------------
 Center     Atomic      Atomic             Coordinates (Angstroms)
 Number     Number       Type             X           Y           Z
 ---------------------------------------------------------------------
      1          7           0        0.700335    0.545981    0.001404
      2          6           0       -0.644853    0.502348   -0.001982
      3          8           0        1.262487   -0.468243   -0.000602
      4          8           0       -1.247784   -0.567560    0.000720
      5          1           0       -1.150855    1.450464    0.001120
 ---------------------------------------------------------------------
 Rotational constants (GHZ):          28.2567338           7.9424199           6.1997952
 Standard basis: 6-31G(d) (6D, 7F)
 There are    62 symmetry adapted cartesian basis functions of A   symmetry.
 There are    62 symmetry adapted basis functions of A   symmetry.
    62 basis functions,   116 primitive gaussians,    62 cartesian basis functions
    15 alpha electrons       15 beta electrons
       nuclear repulsion energy       109.5284563329 Hartrees.
 NAtoms=    5 NActive=    5 NUniq=    5 SFac= 1.00D+00 NAtFMM=   60 NAOKFM=F Big=F
 Integral buffers will be    131072 words long.
 Raffenetti 2 integral format.
 Two-electron integral symmetry is turned on.
 One-electron integrals computed using PRISM.
 NBasis=    62 RedAO= T EigKep=  3.09D-03  NBF=    62
 NBsUse=    62 1.00D-06 EigRej= -1.00D+00 NBFU=    62
 ExpMin= 1.61D-01 ExpMax= 5.48D+03 ExpMxC= 8.25D+02 IAcc=3 IRadAn=         5 AccDes= 0.00D+00
 Harris functional with IExCor= 4538 and IRadAn=       5 diagonalized for initial guess.
 HarFok:  IExCor= 4538 AccDes= 0.00D+00 IRadAn=         5 IDoV= 1 UseB2=F ITyADJ=14
 ICtDFT=  3500011 ScaDFX=  1.000000  1.000000  1.000000  1.000000
 FoFCou: FMM=F IPFlag=           0 FMFlag=      100000 FMFlg1=           0
         NFxFlg=           0 DoJE=T BraDBF=F KetDBF=T FulRan=T
         wScrn=  0.000000 ICntrl=       500 IOpCl=  0 I1Cent=   200000004 NGrid=           0
         NMat0=    1 NMatS0=      1 NMatT0=    0 NMatD0=    1 NMtDS0=    0 NMtDT0=    0
 Petite list used in FoFCou.
 Keep R1 ints in memory in canonical form, NReq=5584247.
 Requested convergence on RMS density matrix=1.00D-08 within 128 cycles.
 Requested convergence on MAX density matrix=1.00D-06.
 Requested convergence on             energy=1.00D-06.
 No special actions if energy rises.
 Integral accuracy reduced to 1.0D-05 until final iterations.
 Initial convergence to 1.0D-05 achieved.  Increase integral accuracy.
 SCF Done:  E(RwB97X) =  -243.699663781     A.U. after   24 cycles
            NFock= 24  Conv=0.13D-08     -V/T= 2.0067

 **********************************************************************

            Population analysis using the SCF density.

 **********************************************************************

 Orbital symmetries:
       Occupied  (A) (A) (A) (A) (A) (A) (A) (A) (A) (A) (A) (A)
                 (A) (A) (A)
       Virtual   (A) (A) (A) (A) (A) (A) (A) (A) (A) (A) (A) (A)
                 (A) (A) (A) (A) (A) (A) (A) (A) (A) (A) (A) (A)
                 (A) (A) (A) (A) (A) (A) (A) (A) (A) (A) (A) (A)
                 (A) (A) (A) (A) (A) (A) (A) (A) (A) (A) (A)
 The electronic state is 1-A.
 Alpha  occ. eigenvalues --  -19.31759 -19.27111 -14.53830 -10.40587  -1.36520
 Alpha  occ. eigenvalues --   -1.20838  -0.96019  -0.72548  -0.67940  -0.63584
 Alpha  occ. eigenvalues --   -0.61939  -0.55538  -0.51305  -0.42984  -0.34778
 Alpha virt. eigenvalues --   -0.06484   0.11482   0.22009   0.30309   0.38135
 Alpha virt. eigenvalues --    0.49140   0.59390   0.64346   0.71343   0.77861
 Alpha virt. eigenvalues --    0.79738   0.80086   0.84798   0.90558   0.94170
 Alpha virt. eigenvalues --    0.97768   1.00123   1.08778   1.11552   1.15235
 Alpha virt. eigenvalues --    1.25481   1.38730   1.39875   1.50594   1.66057
 Alpha virt. eigenvalues --    1.66992   1.72360   1.81910   1.84694   1.95721
 Alpha virt. eigenvalues --    1.96468   1.99068   2.18732   2.21796   2.41790
 Alpha virt. eigenvalues --    2.51429   2.53271   2.64637   2.80590   2.81346
 Alpha virt. eigenvalues --    2.93930   3.00923   3.22982   3.67627   3.82411
 Alpha virt. eigenvalues --    4.06365   4.27822
          Condensed to atoms (all electrons):
               1          2          3          4          5
     1  N    6.728674   0.156229   0.247456  -0.082774  -0.084580
     2  C    0.156229   4.679169  -0.063059   0.561322   0.382333
     3  O    0.247456  -0.063059   7.999088   0.001763   0.005725
     4  O   -0.082774   0.561322   0.001763   7.882796  -0.046594
     5  H   -0.084580   0.382333   0.005725  -0.046594   0.554627
 Mulliken charges:
               1
     1  N    0.034994
     2  C    0.284005
     3  O   -0.190973
     4  O   -0.316514
     5  H    0.188488
 Sum of Mulliken charges =  -0.00000
 Mulliken charges with hydrogens summed into heavy atoms:
               1
     1  N    0.034994
     2  C    0.472493
     3  O   -0.190973
     4  O   -0.316514
 Electronic spatial extent (au):  <R**2>=            200.6751
 Charge=             -0.0000 electrons
 Dipole moment (field-independent basis, Debye):
    X=             -0.7221    Y=              1.9258    Z=             -0.0091  Tot=              2.0567
 Quadrupole moment (field-independent basis, Debye-Ang):
   XX=            -24.4111   YY=            -21.8182   ZZ=            -19.5726
   XY=             -2.9254   XZ=             -0.0088   YZ=             -0.0140
 Traceless Quadrupole moment (field-independent basis, Debye-Ang):
   XX=             -2.4771   YY=              0.1157   ZZ=              2.3614
   XY=             -2.9254   XZ=             -0.0088   YZ=             -0.0140
 Octapole moment (field-independent basis, Debye-Ang**2):
  XXX=              0.9288  YYY=             -2.0841  ZZZ=             -0.0033  XYY=             -2.4964
  XXY=              1.1845  XXZ=             -0.0213  XZZ=              0.7968  YZZ=             -1.0714
  YYZ=             -0.0070  XYZ=             -0.0180
 Hexadecapole moment (field-independent basis, Debye-Ang**3):
 XXXX=           -158.1854 YYYY=            -59.7881 ZZZZ=            -14.6369 XXXY=             -4.2253
 XXXZ=             -0.0313 YYYX=             -5.0299 YYYZ=             -0.0188 ZZZX=             -0.0139
 ZZZY=             -0.0095 XXYY=            -34.9692 XXZZ=            -26.0370 YYZZ=            -12.2307
 XXYZ=             -0.0049 YYXZ=             -0.0146 ZZXY=             -0.1669
 N-N= 1.095284563329D+02 E-N=-7.911739681451D+02  KE= 2.420853614705D+02
 1\1\GINC-NODE91\SP\RwB97X\6-31G(d)\C1H1N1O2\YANZ\05-Jun-2019\0\\# 6-31
 g(d) wb97x\\tmpdir/M2_conf_2_151.gjf\\0,1\N,0,0.,0.,0.\C,0,1.3459,0.,0
 .\O,0,-0.52897,0.,-1.03192\O,0,1.98319,0.0077,-1.04978\H,0,1.82089,0.0
 0118,0.96403\\Version=ES64L-G16RevA.03\State=1-A\HF=-243.6996638\RMSD=
 1.289e-09\Dipole=0.2593994,-0.0054024,0.7664641\Quadrupole=-1.9806243,
 1.7556808,0.2249435,-0.0093318,2.1079488,0.0000595\PG=C01 [X(C1H1N1O2)
 ]\\@


 NOBODY LOSES ALL THE TIME
 I HAD AN UNCLE NAMED
 SOL WHO WAS A BORN FAILURE AND
 NEARLY EVERYBODY SAID HE SHOULD HAVE GONE
 INTO VAUDEVILLE PERHAPS BECAUSE MY UNCLE SOL COULD
 SING MCCANN HE WAS A DIVER ON XMAS EVE LIKE HELL ITSELF WHICH
 MAY OR MAY NOT ACCOUNT FOR THE FACT THAT MY UNCLE
 SOL INDULGED IN THAT POSSIBLY MOST INEXCUSABLE
 OF ALL TO USE A HIGHFALOOTIN PHRASE
 LUXURIES THAT IS OR TO
 WIT FARMING AND BE
 IT NEEDLESSLY
 ADDED
 MY UNCLE SOL'S FARM     
 FAILED BECAUSE THE CHICKENS
 ATE THE VEGETABLES SO
 MY UNCLE SOL HAD A
 CHICKEN FARM TILL THE
 SKUNKS ATE THE CHICKENS WHEN 
 MY UNCLE SOL
 HAD A SKUNK FARM BUT
 THE SKUNKS CAUGHT COLD AND
 DIED AND SO
 MY UNCLE SOL IMITATED THE
 SKUNKS IN A SUBTLE MANNER
 OR BY DROWNING HIMSELF IN THE WATERTANK
 BUT SOMEBODY WHO'D GIVEN MY UNCLE SOL A VICTOR     
 VICTROLA AND RECORDS WHILE HE LIVED PRESENTED TO
 HIM UPON THE AUSPICIOUS OCCASION OF HIS DECEASE A
 SCRUMPTIOUS NOT TO MENTION SPLENDIFEROUS FUNERAL WITH
 TALL BOYS IN BLACK GLOVES AND FLOWERS AND EVERYTHING AND
 I REMEMBER WE ALL CRIED LIKE THE MISSOURI
 WHEN MY UNCLE SOL'S COFFIN LURCHED BECAUSE     
 SOMEBODY PRESSED A BUTTON
 (AND DOWN WENT
 MY UNCLE
 SOL
 AND STARTED A WORM FARM)
           E. E. CUMMINGS
 Job cpu time:       0 days  0 hours  0 minutes 17.3 seconds.
 Elapsed time:       0 days  0 hours  0 minutes  8.8 seconds.
 File lengths (MBytes):  RWF=      6 Int=      0 D2E=      0 Chk=      1 Scr=      1
 Normal termination of Gaussian 16 at Wed Jun  5 17:04:48 2019.
