 Entering Gaussian System, Link 0=g16
 Initial command:
 /share/apps/gaussian/g16/l1.exe "/tmp/55477.mgr/Gau-325905.inp" -scrdir="/tmp/55477.mgr/"
 Entering Link 1 = /share/apps/gaussian/g16/l1.exe PID=    325906.
  
 Copyright (c) 1988,1990,1992,1993,1995,1998,2003,2009,2016,
            Gaussian, Inc.  All Rights Reserved.
  
 This is part of the Gaussian(R) 16 program.  It is based on
 the Gaussian(R) 09 system (copyright 2009, Gaussian, Inc.),
 the Gaussian(R) 03 system (copyright 2003, Gaussian, Inc.),
 the Gaussian(R) 98 system (copyright 1998, Gaussian, Inc.),
 the Gaussian(R) 94 system (copyright 1995, Gaussian, Inc.),
 the Gaussian 92(TM) system (copyright 1992, Gaussian, Inc.),
 the Gaussian 90(TM) system (copyright 1990, Gaussian, Inc.),
 the Gaussian 88(TM) system (copyright 1988, Gaussian, Inc.),
 the Gaussian 86(TM) system (copyright 1986, Carnegie Mellon
 University), and the Gaussian 82(TM) system (copyright 1983,
 Carnegie Mellon University). Gaussian is a federally registered
 trademark of Gaussian, Inc.
  
 This software contains proprietary and confidential information,
 including trade secrets, belonging to Gaussian, Inc.
  
 This software is provided under written license and may be
 used, copied, transmitted, or stored only in accord with that
 written license.
  
 The following legend is applicable only to US Government
 contracts under FAR:
  
                    RESTRICTED RIGHTS LEGEND
  
 Use, reproduction and disclosure by the US Government is
 subject to restrictions as set forth in subparagraphs (a)
 and (c) of the Commercial Computer Software - Restricted
 Rights clause in FAR 52.227-19.
  
 Gaussian, Inc.
 340 Quinnipiac St., Bldg. 40, Wallingford CT 06492
  
  
 ---------------------------------------------------------------
 Warning -- This program may not be used in any manner that
 competes with the business of Gaussian, Inc. or will provide
 assistance to any competitor of Gaussian, Inc.  The licensee
 of this program is prohibited from giving any competitor of
 Gaussian, Inc. access to this program.  By using this program,
 the user acknowledges that Gaussian, Inc. is engaged in the
 business of creating and licensing software in the field of
 computational chemistry and represents and warrants to the
 licensee that it is not a competitor of Gaussian, Inc. and that
 it will not use this program in any manner prohibited above.
 ---------------------------------------------------------------
  

 Cite this work as:
 Gaussian 16, Revision A.03,
 M. J. Frisch, G. W. Trucks, H. B. Schlegel, G. E. Scuseria, 
 M. A. Robb, J. R. Cheeseman, G. Scalmani, V. Barone, 
 G. A. Petersson, H. Nakatsuji, X. Li, M. Caricato, A. V. Marenich, 
 J. Bloino, B. G. Janesko, R. Gomperts, B. Mennucci, H. P. Hratchian, 
 J. V. Ortiz, A. F. Izmaylov, J. L. Sonnenberg, D. Williams-Young, 
 F. Ding, F. Lipparini, F. Egidi, J. Goings, B. Peng, A. Petrone, 
 T. Henderson, D. Ranasinghe, V. G. Zakrzewski, J. Gao, N. Rega, 
 G. Zheng, W. Liang, M. Hada, M. Ehara, K. Toyota, R. Fukuda, 
 J. Hasegawa, M. Ishida, T. Nakajima, Y. Honda, O. Kitao, H. Nakai, 
 T. Vreven, K. Throssell, J. A. Montgomery, Jr., J. E. Peralta, 
 F. Ogliaro, M. J. Bearpark, J. J. Heyd, E. N. Brothers, K. N. Kudin, 
 V. N. Staroverov, T. A. Keith, R. Kobayashi, J. Normand, 
 K. Raghavachari, A. P. Rendell, J. C. Burant, S. S. Iyengar, 
 J. Tomasi, M. Cossi, J. M. Millam, M. Klene, C. Adamo, R. Cammi, 
 J. W. Ochterski, R. L. Martin, K. Morokuma, O. Farkas, 
 J. B. Foresman, and D. J. Fox, Gaussian, Inc., Wallingford CT, 2016.
 
 ******************************************
 Gaussian 16:  ES64L-G16RevA.03 25-Dec-2016
                 5-Jun-2019 
 ******************************************
 %nprocshared=2
 Will use up to    2 processors via shared memory.
 %mem=2GB
 ----------------
 # 6-31g(d) wb97x
 ----------------
 1/38=1,172=1/1;
 2/12=2,17=6,18=5,40=1/2;
 3/5=1,6=6,7=1,11=2,25=1,30=1,74=-57/1,2,3;
 4//1;
 5/5=2,38=5/2;
 6/7=2,8=2,9=2,10=2,28=1/1;
 99/5=1,9=1/99;
 -----------------------
 tmpdir/M2_conf_2_65.gjf
 -----------------------
 Symbolic Z-matrix:
 Charge =  0 Multiplicity = 1
 C                     0.        0.        0. 
 C                     1.3951    0.        0. 
 H                    -0.55981   0.       -0.94283 
 H                    -0.48687   0.03846   0.88441 
 H                     1.93172  -0.04642  -0.94578 
 H                     1.9094    0.0434    0.86269 
 
                          Input orientation:                          
 ---------------------------------------------------------------------
 Center     Atomic      Atomic             Coordinates (Angstroms)
 Number     Number       Type             X           Y           Z
 ---------------------------------------------------------------------
      1          6           0        0.000000    0.000000    0.000000
      2          6           0        1.395100    0.000000    0.000000
      3          1           0       -0.559810    0.000000   -0.942830
      4          1           0       -0.486870    0.038460    0.884410
      5          1           0        1.931720   -0.046420   -0.945780
      6          1           0        1.909400    0.043400    0.862690
 ---------------------------------------------------------------------
                    Distance matrix (angstroms):
                    1          2          3          4          5
     1  C    0.000000
     2  C    1.395100   0.000000
     3  H    1.096502   2.170392   0.000000
     4  H    1.010298   2.079777   1.829100   0.000000
     5  H    2.151324   1.088401   2.491964   3.034201   0.000000
     6  H    2.095692   1.005297   3.059213   2.396374   1.810837
                    6
     6  H    0.000000
 Stoichiometry    C2H4
 Framework group  C1[X(C2H4)]
 Deg. of freedom    12
 Full point group                 C1      NOp   1
 Largest Abelian subgroup         C1      NOp   1
 Largest concise Abelian subgroup C1      NOp   1
                         Standard orientation:                         
 ---------------------------------------------------------------------
 Center     Atomic      Atomic             Coordinates (Angstroms)
 Number     Number       Type             X           Y           Z
 ---------------------------------------------------------------------
      1          6           0       -0.697782   -0.009946   -0.005523
      2          6           0        0.697303   -0.007578    0.000475
      3          1           0       -1.259327    0.931355    0.025043
      4          1           0       -1.183176   -0.895985   -0.000111
      5          1           0        1.232368    0.940157   -0.010532
      6          1           0        1.213007   -0.870384    0.015889
 ---------------------------------------------------------------------
 Rotational constants (GHZ):         151.2943287          28.5498962          24.0206272
 Standard basis: 6-31G(d) (6D, 7F)
 There are    38 symmetry adapted cartesian basis functions of A   symmetry.
 There are    38 symmetry adapted basis functions of A   symmetry.
    38 basis functions,    72 primitive gaussians,    38 cartesian basis functions
     8 alpha electrons        8 beta electrons
       nuclear repulsion energy        33.1115933970 Hartrees.
 NAtoms=    6 NActive=    6 NUniq=    6 SFac= 1.00D+00 NAtFMM=   60 NAOKFM=F Big=F
 Integral buffers will be    131072 words long.
 Raffenetti 2 integral format.
 Two-electron integral symmetry is turned on.
 One-electron integrals computed using PRISM.
 NBasis=    38 RedAO= T EigKep=  8.97D-03  NBF=    38
 NBsUse=    38 1.00D-06 EigRej= -1.00D+00 NBFU=    38
 ExpMin= 1.61D-01 ExpMax= 3.05D+03 ExpMxC= 4.57D+02 IAcc=3 IRadAn=         5 AccDes= 0.00D+00
 Harris functional with IExCor= 4538 and IRadAn=       5 diagonalized for initial guess.
 HarFok:  IExCor= 4538 AccDes= 0.00D+00 IRadAn=         5 IDoV= 1 UseB2=F ITyADJ=14
 ICtDFT=  3500011 ScaDFX=  1.000000  1.000000  1.000000  1.000000
 FoFCou: FMM=F IPFlag=           0 FMFlag=      100000 FMFlg1=           0
         NFxFlg=           0 DoJE=T BraDBF=F KetDBF=T FulRan=T
         wScrn=  0.000000 ICntrl=       500 IOpCl=  0 I1Cent=   200000004 NGrid=           0
         NMat0=    1 NMatS0=      1 NMatT0=    0 NMatD0=    1 NMtDS0=    0 NMtDT0=    0
 Petite list used in FoFCou.
 Keep R1 ints in memory in canonical form, NReq=2276060.
 Requested convergence on RMS density matrix=1.00D-08 within 128 cycles.
 Requested convergence on MAX density matrix=1.00D-06.
 Requested convergence on             energy=1.00D-06.
 No special actions if energy rises.
 Integral accuracy reduced to 1.0D-05 until final iterations.
 Initial convergence to 1.0D-05 achieved.  Increase integral accuracy.
 SCF Done:  E(RwB97X) =  -78.5425350297     A.U. after   12 cycles
            NFock= 12  Conv=0.34D-08     -V/T= 2.0093

 **********************************************************************

            Population analysis using the SCF density.

 **********************************************************************

 Orbital symmetries:
       Occupied  (A) (A) (A) (A) (A) (A) (A) (A)
       Virtual   (A) (A) (A) (A) (A) (A) (A) (A) (A) (A) (A) (A)
                 (A) (A) (A) (A) (A) (A) (A) (A) (A) (A) (A) (A)
                 (A) (A) (A) (A) (A) (A)
 The electronic state is 1-A.
 Alpha  occ. eigenvalues --  -10.26776 -10.26622  -0.87691  -0.70983  -0.58435
 Alpha  occ. eigenvalues --   -0.50853  -0.47353  -0.35599
 Alpha virt. eigenvalues --    0.09903   0.22160   0.26281   0.26953   0.35005
 Alpha virt. eigenvalues --    0.40746   0.59776   0.66256   0.66645   0.74592
 Alpha virt. eigenvalues --    0.75645   0.77551   0.99654   1.00151   1.08352
 Alpha virt. eigenvalues --    1.09768   1.19119   1.34696   1.55384   1.66057
 Alpha virt. eigenvalues --    1.90528   2.02668   2.11723   2.19033   2.42019
 Alpha virt. eigenvalues --    2.43061   2.75798   2.78089   4.21455   4.40048
          Condensed to atoms (all electrons):
               1          2          3          4          5          6
     1  C    4.973227   0.649153   0.384744   0.395056  -0.033521  -0.035152
     2  C    0.649153   4.971869  -0.032241  -0.037239   0.385742   0.395550
     3  H    0.384744  -0.032241   0.519329  -0.033319  -0.005315   0.003596
     4  H    0.395056  -0.037239  -0.033319   0.507398   0.003858  -0.005761
     5  H   -0.033521   0.385742  -0.005315   0.003858   0.522236  -0.034496
     6  H   -0.035152   0.395550   0.003596  -0.005761  -0.034496   0.504632
 Mulliken charges:
               1
     1  C   -0.333508
     2  C   -0.332834
     3  H    0.163207
     4  H    0.170007
     5  H    0.161497
     6  H    0.171631
 Sum of Mulliken charges =  -0.00000
 Mulliken charges with hydrogens summed into heavy atoms:
               1
     1  C   -0.000294
     2  C    0.000294
 Electronic spatial extent (au):  <R**2>=             82.9605
 Charge=             -0.0000 electrons
 Dipole moment (field-independent basis, Debye):
    X=              0.0051    Y=             -0.0475    Z=              0.0292  Tot=              0.0560
 Quadrupole moment (field-independent basis, Debye-Ang):
   XX=            -11.8979   YY=            -11.8890   ZZ=            -15.1325
   XY=             -0.0544   XZ=             -0.0249   YZ=             -0.0006
 Traceless Quadrupole moment (field-independent basis, Debye-Ang):
   XX=              1.0753   YY=              1.0841   ZZ=             -2.1594
   XY=             -0.0544   XZ=             -0.0249   YZ=             -0.0006
 Octapole moment (field-independent basis, Debye-Ang**2):
  XXX=              0.0817  YYY=             -0.1889  ZZZ=              0.0441  XYY=             -0.0231
  XXY=              0.0047  XXZ=              0.0677  XZZ=              0.0214  YZZ=             -0.1491
  YYZ=              0.0404  XYZ=             -0.0683
 Hexadecapole moment (field-independent basis, Debye-Ang**3):
 XXXX=            -67.8548 YYYY=            -24.5211 ZZZZ=            -15.8934 XXXY=             -0.2742
 XXXZ=             -0.0651 YYYX=             -0.0191 YYYZ=             -0.0014 ZZZX=             -0.0185
 ZZZY=             -0.0035 XXYY=            -12.9309 XXZZ=            -14.8068 YYZZ=             -7.3311
 XXYZ=              0.0028 YYXZ=             -0.0396 ZZXY=             -0.0113
 N-N= 3.311159339695D+01 E-N=-2.475577898478D+02  KE= 7.781540007268D+01
 1\1\GINC-NODE91\SP\RwB97X\6-31G(d)\C2H4\YANZ\05-Jun-2019\0\\# 6-31g(d)
  wb97x\\tmpdir/M2_conf_2_65.gjf\\0,1\C,0,0.,0.,0.\C,0,1.3951,0.,0.\H,0
 ,-0.55981,0.,-0.94283\H,0,-0.48687,0.03846,0.88441\H,0,1.93172,-0.0464
 2,-0.94578\H,0,1.9094,0.0434,0.86269\\Version=ES64L-G16RevA.03\State=1
 -A\HF=-78.542535\RMSD=3.380e-09\Dipole=0.0020123,0.0121268,0.0182693\Q
 uadrupole=0.7991098,-1.6022845,0.8031747,-0.0274467,0.0414215,0.084539
 5\PG=C01 [X(C2H4)]\\@


 IMAGINATION WILL OFTEN CARRY US TO WORLDS THAT NEVER WERE.
 BUT WITHOUT IT, WE GO NOWHERE. -- CARL SAGAN (COSMOS)
 Job cpu time:       0 days  0 hours  0 minutes  7.4 seconds.
 Elapsed time:       0 days  0 hours  0 minutes  3.8 seconds.
 File lengths (MBytes):  RWF=      6 Int=      0 D2E=      0 Chk=      1 Scr=      1
 Normal termination of Gaussian 16 at Wed Jun  5 17:03:48 2019.
