 Entering Gaussian System, Link 0=g16
 Initial command:
 /share/apps/gaussian/g16/l1.exe "/tmp/55477.mgr/Gau-322198.inp" -scrdir="/tmp/55477.mgr/"
 Entering Link 1 = /share/apps/gaussian/g16/l1.exe PID=    322199.
  
 Copyright (c) 1988,1990,1992,1993,1995,1998,2003,2009,2016,
            Gaussian, Inc.  All Rights Reserved.
  
 This is part of the Gaussian(R) 16 program.  It is based on
 the Gaussian(R) 09 system (copyright 2009, Gaussian, Inc.),
 the Gaussian(R) 03 system (copyright 2003, Gaussian, Inc.),
 the Gaussian(R) 98 system (copyright 1998, Gaussian, Inc.),
 the Gaussian(R) 94 system (copyright 1995, Gaussian, Inc.),
 the Gaussian 92(TM) system (copyright 1992, Gaussian, Inc.),
 the Gaussian 90(TM) system (copyright 1990, Gaussian, Inc.),
 the Gaussian 88(TM) system (copyright 1988, Gaussian, Inc.),
 the Gaussian 86(TM) system (copyright 1986, Carnegie Mellon
 University), and the Gaussian 82(TM) system (copyright 1983,
 Carnegie Mellon University). Gaussian is a federally registered
 trademark of Gaussian, Inc.
  
 This software contains proprietary and confidential information,
 including trade secrets, belonging to Gaussian, Inc.
  
 This software is provided under written license and may be
 used, copied, transmitted, or stored only in accord with that
 written license.
  
 The following legend is applicable only to US Government
 contracts under FAR:
  
                    RESTRICTED RIGHTS LEGEND
  
 Use, reproduction and disclosure by the US Government is
 subject to restrictions as set forth in subparagraphs (a)
 and (c) of the Commercial Computer Software - Restricted
 Rights clause in FAR 52.227-19.
  
 Gaussian, Inc.
 340 Quinnipiac St., Bldg. 40, Wallingford CT 06492
  
  
 ---------------------------------------------------------------
 Warning -- This program may not be used in any manner that
 competes with the business of Gaussian, Inc. or will provide
 assistance to any competitor of Gaussian, Inc.  The licensee
 of this program is prohibited from giving any competitor of
 Gaussian, Inc. access to this program.  By using this program,
 the user acknowledges that Gaussian, Inc. is engaged in the
 business of creating and licensing software in the field of
 computational chemistry and represents and warrants to the
 licensee that it is not a competitor of Gaussian, Inc. and that
 it will not use this program in any manner prohibited above.
 ---------------------------------------------------------------
  

 Cite this work as:
 Gaussian 16, Revision A.03,
 M. J. Frisch, G. W. Trucks, H. B. Schlegel, G. E. Scuseria, 
 M. A. Robb, J. R. Cheeseman, G. Scalmani, V. Barone, 
 G. A. Petersson, H. Nakatsuji, X. Li, M. Caricato, A. V. Marenich, 
 J. Bloino, B. G. Janesko, R. Gomperts, B. Mennucci, H. P. Hratchian, 
 J. V. Ortiz, A. F. Izmaylov, J. L. Sonnenberg, D. Williams-Young, 
 F. Ding, F. Lipparini, F. Egidi, J. Goings, B. Peng, A. Petrone, 
 T. Henderson, D. Ranasinghe, V. G. Zakrzewski, J. Gao, N. Rega, 
 G. Zheng, W. Liang, M. Hada, M. Ehara, K. Toyota, R. Fukuda, 
 J. Hasegawa, M. Ishida, T. Nakajima, Y. Honda, O. Kitao, H. Nakai, 
 T. Vreven, K. Throssell, J. A. Montgomery, Jr., J. E. Peralta, 
 F. Ogliaro, M. J. Bearpark, J. J. Heyd, E. N. Brothers, K. N. Kudin, 
 V. N. Staroverov, T. A. Keith, R. Kobayashi, J. Normand, 
 K. Raghavachari, A. P. Rendell, J. C. Burant, S. S. Iyengar, 
 J. Tomasi, M. Cossi, J. M. Millam, M. Klene, C. Adamo, R. Cammi, 
 J. W. Ochterski, R. L. Martin, K. Morokuma, O. Farkas, 
 J. B. Foresman, and D. J. Fox, Gaussian, Inc., Wallingford CT, 2016.
 
 ******************************************
 Gaussian 16:  ES64L-G16RevA.03 25-Dec-2016
                 5-Jun-2019 
 ******************************************
 %nprocshared=2
 Will use up to    2 processors via shared memory.
 %mem=2GB
 ----------------
 # 6-31g(d) wb97x
 ----------------
 1/38=1,172=1/1;
 2/12=2,17=6,18=5,40=1/2;
 3/5=1,6=6,7=1,11=2,25=1,30=1,74=-57/1,2,3;
 4//1;
 5/5=2,38=5/2;
 6/7=2,8=2,9=2,10=2,28=1/1;
 99/5=1,9=1/99;
 ------------------------
 tmpdir/M2_conf_0_149.gjf
 ------------------------
 Symbolic Z-matrix:
 Charge =  0 Multiplicity = 1
 N                     0.        0.        0. 
 C                     1.3736    0.        0. 
 N                     1.97068   0.        1.20811 
 H                    -0.66851  -0.00025  -0.7189 
 H                    -0.35807   0.00642   0.94309 
 O                     2.0245    0.0065   -1.09492 
 O                     3.12521  -0.0091    1.19039 
 
                          Input orientation:                          
 ---------------------------------------------------------------------
 Center     Atomic      Atomic             Coordinates (Angstroms)
 Number     Number       Type             X           Y           Z
 ---------------------------------------------------------------------
      1          7           0        0.000000    0.000000    0.000000
      2          6           0        1.373600    0.000000    0.000000
      3          7           0        1.970680    0.000000    1.208110
      4          1           0       -0.668510   -0.000250   -0.718900
      5          1           0       -0.358070    0.006420    0.943090
      6          8           0        2.024500    0.006500   -1.094920
      7          8           0        3.125210   -0.009100    1.190390
 ---------------------------------------------------------------------
                    Distance matrix (angstroms):
                    1          2          3          4          5
     1  N    0.000000
     2  C    1.373600   0.000000
     3  N    2.311517   1.347603   0.000000
     4  H    0.981694   2.164955   3.267827   0.000000
     5  H    1.008798   1.971837   2.343790   1.690748   0.000000
     6  O    2.301628   1.273799   2.303668   2.719143   3.135303
     7  O    3.344256   2.117841   1.154702   4.247091   3.492082
                    6          7
     6  O    0.000000
     7  O    2.536621   0.000000
 Stoichiometry    CH2N2O2
 Framework group  C1[X(CH2N2O2)]
 Deg. of freedom    15
 Full point group                 C1      NOp   1
 Largest Abelian subgroup         C1      NOp   1
 Largest concise Abelian subgroup C1      NOp   1
                         Standard orientation:                         
 ---------------------------------------------------------------------
 Center     Atomic      Atomic             Coordinates (Angstroms)
 Number     Number       Type             X           Y           Z
 ---------------------------------------------------------------------
      1          7           0       -1.561550   -0.550661   -0.002205
      2          6           0       -0.349383    0.095424   -0.000865
      3          7           0        0.745762   -0.689854    0.004545
      4          1           0       -2.489628   -0.230694   -0.005979
      5          1           0       -1.433971   -1.551311    0.007634
      6          8           0       -0.289995    1.367835    0.001895
      7          8           0        1.756296   -0.131201   -0.003500
 ---------------------------------------------------------------------
 Rotational constants (GHZ):          11.6128585           4.9383772           3.4649519
 Standard basis: 6-31G(d) (6D, 7F)
 There are    79 symmetry adapted cartesian basis functions of A   symmetry.
 There are    79 symmetry adapted basis functions of A   symmetry.
    79 basis functions,   148 primitive gaussians,    79 cartesian basis functions
    19 alpha electrons       19 beta electrons
       nuclear repulsion energy       168.1053714037 Hartrees.
 NAtoms=    7 NActive=    7 NUniq=    7 SFac= 1.00D+00 NAtFMM=   60 NAOKFM=F Big=F
 Integral buffers will be    131072 words long.
 Raffenetti 2 integral format.
 Two-electron integral symmetry is turned on.
 One-electron integrals computed using PRISM.
 NBasis=    79 RedAO= T EigKep=  2.77D-03  NBF=    79
 NBsUse=    79 1.00D-06 EigRej= -1.00D+00 NBFU=    79
 ExpMin= 1.61D-01 ExpMax= 5.48D+03 ExpMxC= 8.25D+02 IAcc=3 IRadAn=         5 AccDes= 0.00D+00
 Harris functional with IExCor= 4538 and IRadAn=       5 diagonalized for initial guess.
 HarFok:  IExCor= 4538 AccDes= 0.00D+00 IRadAn=         5 IDoV= 1 UseB2=F ITyADJ=14
 ICtDFT=  3500011 ScaDFX=  1.000000  1.000000  1.000000  1.000000
 FoFCou: FMM=F IPFlag=           0 FMFlag=      100000 FMFlg1=           0
         NFxFlg=           0 DoJE=T BraDBF=F KetDBF=T FulRan=T
         wScrn=  0.000000 ICntrl=       500 IOpCl=  0 I1Cent=   200000004 NGrid=           0
         NMat0=    1 NMatS0=      1 NMatT0=    0 NMatD0=    1 NMtDS0=    0 NMtDT0=    0
 Petite list used in FoFCou.
 Keep R1 ints in memory in canonical form, NReq=11790360.
 Requested convergence on RMS density matrix=1.00D-08 within 128 cycles.
 Requested convergence on MAX density matrix=1.00D-06.
 Requested convergence on             energy=1.00D-06.
 No special actions if energy rises.
 Integral accuracy reduced to 1.0D-05 until final iterations.
 Initial convergence to 1.0D-05 achieved.  Increase integral accuracy.
 SCF Done:  E(RwB97X) =  -299.066071218     A.U. after   20 cycles
            NFock= 20  Conv=0.54D-08     -V/T= 2.0077

 **********************************************************************

            Population analysis using the SCF density.

 **********************************************************************

 Orbital symmetries:
       Occupied  (A) (A) (A) (A) (A) (A) (A) (A) (A) (A) (A) (A)
                 (A) (A) (A) (A) (A) (A) (A)
       Virtual   (A) (A) (A) (A) (A) (A) (A) (A) (A) (A) (A) (A)
                 (A) (A) (A) (A) (A) (A) (A) (A) (A) (A) (A) (A)
                 (A) (A) (A) (A) (A) (A) (A) (A) (A) (A) (A) (A)
                 (A) (A) (A) (A) (A) (A) (A) (A) (A) (A) (A) (A)
                 (A) (A) (A) (A) (A) (A) (A) (A) (A) (A) (A) (A)
 The electronic state is 1-A.
 Alpha  occ. eigenvalues --  -19.31236 -19.20672 -14.54294 -14.46801 -10.41587
 Alpha  occ. eigenvalues --   -1.36556  -1.16363  -1.06376  -0.93804  -0.72897
 Alpha  occ. eigenvalues --   -0.67818  -0.66690  -0.63622  -0.59397  -0.53261
 Alpha  occ. eigenvalues --   -0.51023  -0.39239  -0.38854  -0.34509
 Alpha virt. eigenvalues --   -0.04041   0.15549   0.16908   0.21692   0.32744
 Alpha virt. eigenvalues --    0.37015   0.45823   0.52665   0.63318   0.66860
 Alpha virt. eigenvalues --    0.69267   0.70770   0.76413   0.79931   0.80044
 Alpha virt. eigenvalues --    0.82374   0.82577   0.91824   0.97044   0.98575
 Alpha virt. eigenvalues --    1.02309   1.03330   1.08785   1.14397   1.17340
 Alpha virt. eigenvalues --    1.25077   1.33105   1.36914   1.42939   1.44655
 Alpha virt. eigenvalues --    1.63657   1.66626   1.72157   1.72979   1.77305
 Alpha virt. eigenvalues --    1.85309   1.92505   1.94395   1.96211   2.01119
 Alpha virt. eigenvalues --    2.10461   2.15926   2.19623   2.39612   2.41607
 Alpha virt. eigenvalues --    2.54441   2.55230   2.55762   2.65280   2.79396
 Alpha virt. eigenvalues --    2.81827   2.95856   2.98944   3.16081   3.28164
 Alpha virt. eigenvalues --    3.76205   3.92110   3.97680   4.19872   4.44720
          Condensed to atoms (all electrons):
               1          2          3          4          5          6
     1  N    7.040318   0.291678  -0.104194   0.325188   0.301281  -0.096273
     2  C    0.291678   4.390851   0.162531  -0.006964  -0.032411   0.604446
     3  N   -0.104194   0.162531   6.724852   0.002812   0.020122  -0.087213
     4  H    0.325188  -0.006964   0.002812   0.308318  -0.018633   0.001569
     5  H    0.301281  -0.032411   0.020122  -0.018633   0.366029   0.003482
     6  O   -0.096273   0.604446  -0.087213   0.001569   0.003482   8.036815
     7  O    0.005110  -0.070675   0.278156  -0.000073   0.000060  -0.000750
               7
     1  N    0.005110
     2  C   -0.070675
     3  N    0.278156
     4  H   -0.000073
     5  H    0.000060
     6  O   -0.000750
     7  O    7.974318
 Mulliken charges:
               1
     1  N   -0.763107
     2  C    0.660544
     3  N    0.002934
     4  H    0.387783
     5  H    0.360070
     6  O   -0.462077
     7  O   -0.186147
 Sum of Mulliken charges =  -0.00000
 Mulliken charges with hydrogens summed into heavy atoms:
               1
     1  N   -0.015254
     2  C    0.660544
     3  N    0.002934
     6  O   -0.462077
     7  O   -0.186147
 Electronic spatial extent (au):  <R**2>=            339.0811
 Charge=             -0.0000 electrons
 Dipole moment (field-independent basis, Debye):
    X=             -3.0508    Y=             -2.9557    Z=             -0.0027  Tot=              4.2477
 Quadrupole moment (field-independent basis, Debye-Ang):
   XX=            -22.6021   YY=            -30.4215   ZZ=            -26.6120
   XY=              2.9151   XZ=              0.0021   YZ=             -0.0036
 Traceless Quadrupole moment (field-independent basis, Debye-Ang):
   XX=              3.9431   YY=             -3.8763   ZZ=             -0.0668
   XY=              2.9151   XZ=              0.0021   YZ=             -0.0036
 Octapole moment (field-independent basis, Debye-Ang**2):
  XXX=            -20.6454  YYY=             -6.4788  ZZZ=              0.0017  XYY=             -2.7964
  XXY=             -2.1054  XXZ=             -0.0225  XZZ=              3.5945  YZZ=              0.8080
  YYZ=              0.0009  XYZ=              0.0691
 Hexadecapole moment (field-independent basis, Debye-Ang**3):
 XXXX=           -196.6207 YYYY=           -120.4528 ZZZZ=            -20.9965 XXXY=              7.3701
 XXXZ=              0.1220 YYYX=             10.6274 YYYZ=             -0.0232 ZZZX=             -0.0381
 ZZZY=              0.0029 XXYY=            -57.4634 XXZZ=            -45.0152 YYZZ=            -23.4023
 XXYZ=             -0.0212 YYXZ=             -0.0844 ZZXY=             -1.1541
 N-N= 1.681053714037D+02 E-N=-1.037598783750D+03  KE= 2.967878166013D+02
 1\1\GINC-NODE91\SP\RwB97X\6-31G(d)\C1H2N2O2\YANZ\05-Jun-2019\0\\# 6-31
 g(d) wb97x\\tmpdir/M2_conf_0_149.gjf\\0,1\N,0,0.,0.,0.\C,0,1.3736,0.,0
 .\N,0,1.97068,0.,1.20811\H,0,-0.66851,-0.00025,-0.7189\H,0,-0.35807,0.
 00642,0.94309\O,0,2.0245,0.0065,-1.09492\O,0,3.12521,-0.0091,1.19039\\
 Version=ES64L-G16RevA.03\State=1-A\HF=-299.0660712\RMSD=5.447e-09\Dipo
 le=-1.6061705,-0.0013459,0.4616246\Quadrupole=3.4446308,-0.0497234,-3.
 3949074,-0.0081082,1.2047558,0.0152445\PG=C01 [X(C1H2N2O2)]\\@


 IF IT HAPPENS, IT MUST BE POSSIBLE.

 -- THE UNNAMED LAW FROM PAUL DICKSON'S 
    "THE OFFICIAL RULES"
 Job cpu time:       0 days  0 hours  0 minutes 25.7 seconds.
 Elapsed time:       0 days  0 hours  0 minutes 13.0 seconds.
 File lengths (MBytes):  RWF=      6 Int=      0 D2E=      0 Chk=      1 Scr=      1
 Normal termination of Gaussian 16 at Wed Jun  5 17:00:46 2019.
