 Entering Gaussian System, Link 0=g16
 Initial command:
 /share/apps/gaussian/g16/l1.exe "/tmp/55477.mgr/Gau-325722.inp" -scrdir="/tmp/55477.mgr/"
 Entering Link 1 = /share/apps/gaussian/g16/l1.exe PID=    325723.
  
 Copyright (c) 1988,1990,1992,1993,1995,1998,2003,2009,2016,
            Gaussian, Inc.  All Rights Reserved.
  
 This is part of the Gaussian(R) 16 program.  It is based on
 the Gaussian(R) 09 system (copyright 2009, Gaussian, Inc.),
 the Gaussian(R) 03 system (copyright 2003, Gaussian, Inc.),
 the Gaussian(R) 98 system (copyright 1998, Gaussian, Inc.),
 the Gaussian(R) 94 system (copyright 1995, Gaussian, Inc.),
 the Gaussian 92(TM) system (copyright 1992, Gaussian, Inc.),
 the Gaussian 90(TM) system (copyright 1990, Gaussian, Inc.),
 the Gaussian 88(TM) system (copyright 1988, Gaussian, Inc.),
 the Gaussian 86(TM) system (copyright 1986, Carnegie Mellon
 University), and the Gaussian 82(TM) system (copyright 1983,
 Carnegie Mellon University). Gaussian is a federally registered
 trademark of Gaussian, Inc.
  
 This software contains proprietary and confidential information,
 including trade secrets, belonging to Gaussian, Inc.
  
 This software is provided under written license and may be
 used, copied, transmitted, or stored only in accord with that
 written license.
  
 The following legend is applicable only to US Government
 contracts under FAR:
  
                    RESTRICTED RIGHTS LEGEND
  
 Use, reproduction and disclosure by the US Government is
 subject to restrictions as set forth in subparagraphs (a)
 and (c) of the Commercial Computer Software - Restricted
 Rights clause in FAR 52.227-19.
  
 Gaussian, Inc.
 340 Quinnipiac St., Bldg. 40, Wallingford CT 06492
  
  
 ---------------------------------------------------------------
 Warning -- This program may not be used in any manner that
 competes with the business of Gaussian, Inc. or will provide
 assistance to any competitor of Gaussian, Inc.  The licensee
 of this program is prohibited from giving any competitor of
 Gaussian, Inc. access to this program.  By using this program,
 the user acknowledges that Gaussian, Inc. is engaged in the
 business of creating and licensing software in the field of
 computational chemistry and represents and warrants to the
 licensee that it is not a competitor of Gaussian, Inc. and that
 it will not use this program in any manner prohibited above.
 ---------------------------------------------------------------
  

 Cite this work as:
 Gaussian 16, Revision A.03,
 M. J. Frisch, G. W. Trucks, H. B. Schlegel, G. E. Scuseria, 
 M. A. Robb, J. R. Cheeseman, G. Scalmani, V. Barone, 
 G. A. Petersson, H. Nakatsuji, X. Li, M. Caricato, A. V. Marenich, 
 J. Bloino, B. G. Janesko, R. Gomperts, B. Mennucci, H. P. Hratchian, 
 J. V. Ortiz, A. F. Izmaylov, J. L. Sonnenberg, D. Williams-Young, 
 F. Ding, F. Lipparini, F. Egidi, J. Goings, B. Peng, A. Petrone, 
 T. Henderson, D. Ranasinghe, V. G. Zakrzewski, J. Gao, N. Rega, 
 G. Zheng, W. Liang, M. Hada, M. Ehara, K. Toyota, R. Fukuda, 
 J. Hasegawa, M. Ishida, T. Nakajima, Y. Honda, O. Kitao, H. Nakai, 
 T. Vreven, K. Throssell, J. A. Montgomery, Jr., J. E. Peralta, 
 F. Ogliaro, M. J. Bearpark, J. J. Heyd, E. N. Brothers, K. N. Kudin, 
 V. N. Staroverov, T. A. Keith, R. Kobayashi, J. Normand, 
 K. Raghavachari, A. P. Rendell, J. C. Burant, S. S. Iyengar, 
 J. Tomasi, M. Cossi, J. M. Millam, M. Klene, C. Adamo, R. Cammi, 
 J. W. Ochterski, R. L. Martin, K. Morokuma, O. Farkas, 
 J. B. Foresman, and D. J. Fox, Gaussian, Inc., Wallingford CT, 2016.
 
 ******************************************
 Gaussian 16:  ES64L-G16RevA.03 25-Dec-2016
                 5-Jun-2019 
 ******************************************
 %nprocshared=2
 Will use up to    2 processors via shared memory.
 %mem=2GB
 ----------------
 # 6-31g(d) wb97x
 ----------------
 1/38=1,172=1/1;
 2/12=2,17=6,18=5,40=1/2;
 3/5=1,6=6,7=1,11=2,25=1,30=1,74=-57/1,2,3;
 4//1;
 5/5=2,38=5/2;
 6/7=2,8=2,9=2,10=2,28=1/1;
 99/5=1,9=1/99;
 -----------------------
 tmpdir/M2_conf_2_17.gjf
 -----------------------
 Symbolic Z-matrix:
 Charge =  0 Multiplicity = 1
 H                     0.        0.        0. 
 C                     1.0966    0.        0. 
 N                     1.57991   0.        1.3709 
 H                     1.4636   -0.8919   -0.53231 
 H                     1.43491   0.90588  -0.54194 
 H                     1.22805   0.79784   1.88805 
 H                     2.59724  -0.03204   1.38192 
 
                          Input orientation:                          
 ---------------------------------------------------------------------
 Center     Atomic      Atomic             Coordinates (Angstroms)
 Number     Number       Type             X           Y           Z
 ---------------------------------------------------------------------
      1          1           0        0.000000    0.000000    0.000000
      2          6           0        1.096600    0.000000    0.000000
      3          7           0        1.579910    0.000000    1.370900
      4          1           0        1.463600   -0.891900   -0.532310
      5          1           0        1.434910    0.905880   -0.541940
      6          1           0        1.228050    0.797840    1.888050
      7          1           0        2.597240   -0.032040    1.381920
 ---------------------------------------------------------------------
                    Distance matrix (angstroms):
                    1          2          3          4          5
     1  H    0.000000
     2  C    1.096600   0.000000
     3  N    2.091765   1.453601   0.000000
     4  H    1.794705   1.101603   2.105047   0.000000
     5  H    1.781371   1.108500   2.121462   1.798035   0.000000
     6  H    2.389433   2.053913   1.013804   2.961224   2.441171
     7  H    2.942174   2.040257   1.017894   2.385115   2.435558
                    6          7
     6  H    0.000000
     7  H    1.679151   0.000000
 Stoichiometry    CH5N
 Framework group  C1[X(CH5N)]
 Deg. of freedom    15
 Full point group                 C1      NOp   1
 Largest Abelian subgroup         C1      NOp   1
 Largest concise Abelian subgroup C1      NOp   1
                         Standard orientation:                         
 ---------------------------------------------------------------------
 Center     Atomic      Atomic             Coordinates (Angstroms)
 Number     Number       Type             X           Y           Z
 ---------------------------------------------------------------------
      1          1           0       -1.112310   -0.894189   -0.475573
      2          6           0       -0.704925    0.000161    0.010953
      3          7           0        0.743284    0.001135   -0.114120
      4          1           0       -1.127842    0.900401   -0.462584
      5          1           0       -1.013078   -0.023764    1.075491
      6          1           0        1.150768   -0.835137    0.288876
      7          1           0        1.129024    0.843777    0.306911
 ---------------------------------------------------------------------
 Rotational constants (GHZ):         101.5207958          23.1752866          22.0529959
 Standard basis: 6-31G(d) (6D, 7F)
 There are    40 symmetry adapted cartesian basis functions of A   symmetry.
 There are    40 symmetry adapted basis functions of A   symmetry.
    40 basis functions,    76 primitive gaussians,    40 cartesian basis functions
     9 alpha electrons        9 beta electrons
       nuclear repulsion energy        42.0407464618 Hartrees.
 NAtoms=    7 NActive=    7 NUniq=    7 SFac= 1.00D+00 NAtFMM=   60 NAOKFM=F Big=F
 Integral buffers will be    131072 words long.
 Raffenetti 2 integral format.
 Two-electron integral symmetry is turned on.
 One-electron integrals computed using PRISM.
 NBasis=    40 RedAO= T EigKep=  9.04D-03  NBF=    40
 NBsUse=    40 1.00D-06 EigRej= -1.00D+00 NBFU=    40
 ExpMin= 1.61D-01 ExpMax= 4.17D+03 ExpMxC= 6.27D+02 IAcc=3 IRadAn=         5 AccDes= 0.00D+00
 Harris functional with IExCor= 4538 and IRadAn=       5 diagonalized for initial guess.
 HarFok:  IExCor= 4538 AccDes= 0.00D+00 IRadAn=         5 IDoV= 1 UseB2=F ITyADJ=14
 ICtDFT=  3500011 ScaDFX=  1.000000  1.000000  1.000000  1.000000
 FoFCou: FMM=F IPFlag=           0 FMFlag=      100000 FMFlg1=           0
         NFxFlg=           0 DoJE=T BraDBF=F KetDBF=T FulRan=T
         wScrn=  0.000000 ICntrl=       500 IOpCl=  0 I1Cent=   200000004 NGrid=           0
         NMat0=    1 NMatS0=      1 NMatT0=    0 NMatD0=    1 NMtDS0=    0 NMtDT0=    0
 Petite list used in FoFCou.
 Keep R1 ints in memory in canonical form, NReq=2399831.
 Requested convergence on RMS density matrix=1.00D-08 within 128 cycles.
 Requested convergence on MAX density matrix=1.00D-06.
 Requested convergence on             energy=1.00D-06.
 No special actions if energy rises.
 Integral accuracy reduced to 1.0D-05 until final iterations.
 Initial convergence to 1.0D-05 achieved.  Increase integral accuracy.
 SCF Done:  E(RwB97X) =  -95.8215123796     A.U. after   13 cycles
            NFock= 13  Conv=0.93D-08     -V/T= 2.0100

 **********************************************************************

            Population analysis using the SCF density.

 **********************************************************************

 Orbital symmetries:
       Occupied  (A) (A) (A) (A) (A) (A) (A) (A) (A)
       Virtual   (A) (A) (A) (A) (A) (A) (A) (A) (A) (A) (A) (A)
                 (A) (A) (A) (A) (A) (A) (A) (A) (A) (A) (A) (A)
                 (A) (A) (A) (A) (A) (A) (A)
 The electronic state is 1-A.
 Alpha  occ. eigenvalues --  -14.37947 -10.28050  -0.99492  -0.77373  -0.60196
 Alpha  occ. eigenvalues --   -0.53546  -0.50571  -0.47043  -0.32157
 Alpha virt. eigenvalues --    0.18452   0.24250   0.25481   0.27558   0.29067
 Alpha virt. eigenvalues --    0.34241   0.66061   0.67778   0.69745   0.84845
 Alpha virt. eigenvalues --    0.87358   0.89494   0.97744   1.02599   1.04788
 Alpha virt. eigenvalues --    1.05278   1.08725   1.15841   1.48195   1.62737
 Alpha virt. eigenvalues --    1.64860   2.05918   2.14477   2.15819   2.33598
 Alpha virt. eigenvalues --    2.42576   2.45314   2.56021   2.77269   3.88996
 Alpha virt. eigenvalues --    4.37192
          Condensed to atoms (all electrons):
               1          2          3          4          5          6
     1  H    0.543450   0.390902  -0.037659  -0.021733  -0.039213  -0.003306
     2  C    0.390902   4.928236   0.307181   0.390671   0.387492  -0.037183
     3  N   -0.037659   0.307181   6.899780  -0.036368  -0.056536   0.332774
     4  H   -0.021733   0.390671  -0.036368   0.541517  -0.037694   0.004695
     5  H   -0.039213   0.387492  -0.056536  -0.037694   0.624683  -0.002996
     6  H   -0.003306  -0.037183   0.332774   0.004695  -0.002996   0.423957
     7  H    0.004973  -0.039018   0.332493  -0.003465  -0.003091  -0.027740
               7
     1  H    0.004973
     2  C   -0.039018
     3  N    0.332493
     4  H   -0.003465
     5  H   -0.003091
     6  H   -0.027740
     7  H    0.428023
 Mulliken charges:
               1
     1  H    0.162586
     2  C   -0.328279
     3  N   -0.741664
     4  H    0.162378
     5  H    0.127356
     6  H    0.309799
     7  H    0.307825
 Sum of Mulliken charges =  -0.00000
 Mulliken charges with hydrogens summed into heavy atoms:
               1
     2  C    0.124040
     3  N   -0.124040
 Electronic spatial extent (au):  <R**2>=             94.3126
 Charge=             -0.0000 electrons
 Dipole moment (field-independent basis, Debye):
    X=             -0.1634    Y=             -0.0139    Z=              1.3606  Tot=              1.3705
 Quadrupole moment (field-independent basis, Debye-Ang):
   XX=            -13.6201   YY=            -12.1305   ZZ=            -15.2697
   XY=             -0.0569   XZ=              2.0644   YZ=              0.0213
 Traceless Quadrupole moment (field-independent basis, Debye-Ang):
   XX=              0.0534   YY=              1.5429   ZZ=             -1.5963
   XY=             -0.0569   XZ=              2.0644   YZ=              0.0213
 Octapole moment (field-independent basis, Debye-Ang**2):
  XXX=              3.2943  YYY=              0.0127  ZZZ=              1.5522  XYY=              2.1526
  XXY=             -0.0666  XXZ=              1.8752  XZZ=             -0.4059  YZZ=             -0.0181
  YYZ=              0.2998  XYZ=              0.0542
 Hexadecapole moment (field-independent basis, Debye-Ang**3):
 XXXX=            -72.4318 YYYY=            -22.4810 ZZZZ=            -23.3605 XXXY=             -0.2167
 XXXZ=              3.8139 YYYX=             -0.0714 YYYZ=              0.0438 ZZZX=              1.5439
 ZZZY=              0.0107 XXYY=            -13.4566 XXZZ=            -16.8838 YYZZ=             -7.6930
 XXYZ=             -0.0075 YYXZ=              1.8898 ZZXY=              0.0131
 N-N= 4.204074646178D+01 E-N=-3.065122574103D+02  KE= 9.486911966154D+01
 1\1\GINC-NODE91\SP\RwB97X\6-31G(d)\C1H5N1\YANZ\05-Jun-2019\0\\# 6-31g(
 d) wb97x\\tmpdir/M2_conf_2_17.gjf\\0,1\H,0,0.,0.,0.\C,0,1.0966,0.,0.\N
 ,0,1.57991,0.,1.3709\H,0,1.4636,-0.8919,-0.53231\H,0,1.43491,0.90588,-
 0.54194\H,0,1.22805,0.79784,1.88805\H,0,2.59724,-0.03204,1.38192\\Vers
 ion=ES64L-G16RevA.03\State=1-A\HF=-95.8215124\RMSD=9.340e-09\Dipole=0.
 2091467,0.4590099,-0.1904765\Quadrupole=1.0266391,-0.4033726,-0.623266
 5,-0.3677158,0.3320713,1.6348388\PG=C01 [X(C1H5N1)]\\@


 THERE IS AN OLD, OLD RECIPE IN MAINE FOR STEWING COOT. PLACE THE
 BIRD IN A KETTLE OF WATER WITH A RED BUILDING BRICK FREE OF MORTAR AND
 BLEMISHES. PARBOIL THE COOT AND BRICK TOGETHER FOR THREE HOURS.
 POUR OFF THE WATER, REFILL THE KETTLE, AND AGAIN PARBOIL FOR THREE HOURS.
 ONCE AGAIN POUR OFF THE WATER, FOR THE LAST TIME ADD FRESH WATER,
 AND LET THE COOT AND BRICK SIMMER TOGETHER OVERNIGHT. IN THE MORNING,
 THROW AWAY THE COOT AND EAT THE BRICK.
 Job cpu time:       0 days  0 hours  0 minutes  9.9 seconds.
 Elapsed time:       0 days  0 hours  0 minutes  5.0 seconds.
 File lengths (MBytes):  RWF=      6 Int=      0 D2E=      0 Chk=      1 Scr=      1
 Normal termination of Gaussian 16 at Wed Jun  5 17:03:42 2019.
