 Entering Gaussian System, Link 0=g16
 Initial command:
 /share/apps/gaussian/g16/l1.exe "/tmp/55477.mgr/Gau-321567.inp" -scrdir="/tmp/55477.mgr/"
 Entering Link 1 = /share/apps/gaussian/g16/l1.exe PID=    321568.
  
 Copyright (c) 1988,1990,1992,1993,1995,1998,2003,2009,2016,
            Gaussian, Inc.  All Rights Reserved.
  
 This is part of the Gaussian(R) 16 program.  It is based on
 the Gaussian(R) 09 system (copyright 2009, Gaussian, Inc.),
 the Gaussian(R) 03 system (copyright 2003, Gaussian, Inc.),
 the Gaussian(R) 98 system (copyright 1998, Gaussian, Inc.),
 the Gaussian(R) 94 system (copyright 1995, Gaussian, Inc.),
 the Gaussian 92(TM) system (copyright 1992, Gaussian, Inc.),
 the Gaussian 90(TM) system (copyright 1990, Gaussian, Inc.),
 the Gaussian 88(TM) system (copyright 1988, Gaussian, Inc.),
 the Gaussian 86(TM) system (copyright 1986, Carnegie Mellon
 University), and the Gaussian 82(TM) system (copyright 1983,
 Carnegie Mellon University). Gaussian is a federally registered
 trademark of Gaussian, Inc.
  
 This software contains proprietary and confidential information,
 including trade secrets, belonging to Gaussian, Inc.
  
 This software is provided under written license and may be
 used, copied, transmitted, or stored only in accord with that
 written license.
  
 The following legend is applicable only to US Government
 contracts under FAR:
  
                    RESTRICTED RIGHTS LEGEND
  
 Use, reproduction and disclosure by the US Government is
 subject to restrictions as set forth in subparagraphs (a)
 and (c) of the Commercial Computer Software - Restricted
 Rights clause in FAR 52.227-19.
  
 Gaussian, Inc.
 340 Quinnipiac St., Bldg. 40, Wallingford CT 06492
  
  
 ---------------------------------------------------------------
 Warning -- This program may not be used in any manner that
 competes with the business of Gaussian, Inc. or will provide
 assistance to any competitor of Gaussian, Inc.  The licensee
 of this program is prohibited from giving any competitor of
 Gaussian, Inc. access to this program.  By using this program,
 the user acknowledges that Gaussian, Inc. is engaged in the
 business of creating and licensing software in the field of
 computational chemistry and represents and warrants to the
 licensee that it is not a competitor of Gaussian, Inc. and that
 it will not use this program in any manner prohibited above.
 ---------------------------------------------------------------
  

 Cite this work as:
 Gaussian 16, Revision A.03,
 M. J. Frisch, G. W. Trucks, H. B. Schlegel, G. E. Scuseria, 
 M. A. Robb, J. R. Cheeseman, G. Scalmani, V. Barone, 
 G. A. Petersson, H. Nakatsuji, X. Li, M. Caricato, A. V. Marenich, 
 J. Bloino, B. G. Janesko, R. Gomperts, B. Mennucci, H. P. Hratchian, 
 J. V. Ortiz, A. F. Izmaylov, J. L. Sonnenberg, D. Williams-Young, 
 F. Ding, F. Lipparini, F. Egidi, J. Goings, B. Peng, A. Petrone, 
 T. Henderson, D. Ranasinghe, V. G. Zakrzewski, J. Gao, N. Rega, 
 G. Zheng, W. Liang, M. Hada, M. Ehara, K. Toyota, R. Fukuda, 
 J. Hasegawa, M. Ishida, T. Nakajima, Y. Honda, O. Kitao, H. Nakai, 
 T. Vreven, K. Throssell, J. A. Montgomery, Jr., J. E. Peralta, 
 F. Ogliaro, M. J. Bearpark, J. J. Heyd, E. N. Brothers, K. N. Kudin, 
 V. N. Staroverov, T. A. Keith, R. Kobayashi, J. Normand, 
 K. Raghavachari, A. P. Rendell, J. C. Burant, S. S. Iyengar, 
 J. Tomasi, M. Cossi, J. M. Millam, M. Klene, C. Adamo, R. Cammi, 
 J. W. Ochterski, R. L. Martin, K. Morokuma, O. Farkas, 
 J. B. Foresman, and D. J. Fox, Gaussian, Inc., Wallingford CT, 2016.
 
 ******************************************
 Gaussian 16:  ES64L-G16RevA.03 25-Dec-2016
                 5-Jun-2019 
 ******************************************
 %nprocshared=2
 Will use up to    2 processors via shared memory.
 %mem=2GB
 ----------------
 # 6-31g(d) wb97x
 ----------------
 1/38=1,172=1/1;
 2/12=2,17=6,18=5,40=1/2;
 3/5=1,6=6,7=1,11=2,25=1,30=1,74=-57/1,2,3;
 4//1;
 5/5=2,38=5/2;
 6/7=2,8=2,9=2,10=2,28=1/1;
 99/5=1,9=1/99;
 ------------------------
 tmpdir/M2_conf_0_131.gjf
 ------------------------
 Symbolic Z-matrix:
 Charge =  0 Multiplicity = 1
 C                     0.        0.        0. 
 C                     1.508     0.        0. 
 H                     1.89056   0.        1.02429 
 H                    -0.50962  -0.00409   0.86689 
 O                    -0.64964   0.00667  -1.06134 
 H                     1.92038   0.88586  -0.50079 
 H                     1.92103  -0.8867   -0.49943 
 
                          Input orientation:                          
 ---------------------------------------------------------------------
 Center     Atomic      Atomic             Coordinates (Angstroms)
 Number     Number       Type             X           Y           Z
 ---------------------------------------------------------------------
      1          6           0        0.000000    0.000000    0.000000
      2          6           0        1.508000    0.000000    0.000000
      3          1           0        1.890560    0.000000    1.024290
      4          1           0       -0.509620   -0.004090    0.866890
      5          8           0       -0.649640    0.006670   -1.061340
      6          1           0        1.920380    0.885860   -0.500790
      7          1           0        1.921030   -0.886700   -0.499430
 ---------------------------------------------------------------------
                    Distance matrix (angstroms):
                    1          2          3          4          5
     1  C    0.000000
     2  C    1.508000   0.000000
     3  H    2.150206   1.093399   0.000000
     4  H    1.005598   2.195975   2.405339   0.000000
     5  O    1.244395   2.404558   3.286718   1.933337   0.000000
     6  H    2.173338   1.097996   1.763946   2.927022   2.773481
     7  H    2.173942   1.098299   1.763204   2.924703   2.778884
                    6          7
     6  H    0.000000
     7  H    1.772561   0.000000
 Stoichiometry    C2H4O
 Framework group  C1[X(C2H4O)]
 Deg. of freedom    15
 Full point group                 C1      NOp   1
 Largest Abelian subgroup         C1      NOp   1
 Largest concise Abelian subgroup C1      NOp   1
                         Standard orientation:                         
 ---------------------------------------------------------------------
 Center     Atomic      Atomic             Coordinates (Angstroms)
 Number     Number       Type             X           Y           Z
 ---------------------------------------------------------------------
      1          6           0       -0.227892    0.437337    0.000224
      2          6           0        1.165054   -0.140386   -0.000143
      3          1           0        1.910829    0.659178   -0.006337
      4          1           0       -0.366517    1.433333   -0.000726
      5          8           0       -1.234581   -0.294167    0.000034
      6          1           0        1.351900   -0.765737   -0.883104
      7          1           0        1.357464   -0.755142    0.889416
 ---------------------------------------------------------------------
 Rotational constants (GHZ):          55.3718109          10.1027809           9.0271681
 Standard basis: 6-31G(d) (6D, 7F)
 There are    53 symmetry adapted cartesian basis functions of A   symmetry.
 There are    53 symmetry adapted basis functions of A   symmetry.
    53 basis functions,   100 primitive gaussians,    53 cartesian basis functions
    12 alpha electrons       12 beta electrons
       nuclear repulsion energy        69.3039484404 Hartrees.
 NAtoms=    7 NActive=    7 NUniq=    7 SFac= 1.00D+00 NAtFMM=   60 NAOKFM=F Big=F
 Integral buffers will be    131072 words long.
 Raffenetti 2 integral format.
 Two-electron integral symmetry is turned on.
 One-electron integrals computed using PRISM.
 NBasis=    53 RedAO= T EigKep=  6.49D-03  NBF=    53
 NBsUse=    53 1.00D-06 EigRej= -1.00D+00 NBFU=    53
 ExpMin= 1.61D-01 ExpMax= 5.48D+03 ExpMxC= 8.25D+02 IAcc=3 IRadAn=         5 AccDes= 0.00D+00
 Harris functional with IExCor= 4538 and IRadAn=       5 diagonalized for initial guess.
 HarFok:  IExCor= 4538 AccDes= 0.00D+00 IRadAn=         5 IDoV= 1 UseB2=F ITyADJ=14
 ICtDFT=  3500011 ScaDFX=  1.000000  1.000000  1.000000  1.000000
 FoFCou: FMM=F IPFlag=           0 FMFlag=      100000 FMFlg1=           0
         NFxFlg=           0 DoJE=T BraDBF=F KetDBF=T FulRan=T
         wScrn=  0.000000 ICntrl=       500 IOpCl=  0 I1Cent=   200000004 NGrid=           0
         NMat0=    1 NMatS0=      1 NMatT0=    0 NMatD0=    1 NMtDS0=    0 NMtDT0=    0
 Petite list used in FoFCou.
 Keep R1 ints in memory in canonical form, NReq=3800804.
 Requested convergence on RMS density matrix=1.00D-08 within 128 cycles.
 Requested convergence on MAX density matrix=1.00D-06.
 Requested convergence on             energy=1.00D-06.
 No special actions if energy rises.
 Integral accuracy reduced to 1.0D-05 until final iterations.
 Initial convergence to 1.0D-05 achieved.  Increase integral accuracy.
 SCF Done:  E(RwB97X) =  -153.774305508     A.U. after   14 cycles
            NFock= 14  Conv=0.26D-08     -V/T= 2.0088

 **********************************************************************

            Population analysis using the SCF density.

 **********************************************************************

 Orbital symmetries:
       Occupied  (A) (A) (A) (A) (A) (A) (A) (A) (A) (A) (A) (A)
       Virtual   (A) (A) (A) (A) (A) (A) (A) (A) (A) (A) (A) (A)
                 (A) (A) (A) (A) (A) (A) (A) (A) (A) (A) (A) (A)
                 (A) (A) (A) (A) (A) (A) (A) (A) (A) (A) (A) (A)
                 (A) (A) (A) (A) (A)
 The electronic state is 1-A.
 Alpha  occ. eigenvalues --  -19.21276 -10.35860 -10.28022  -1.15118  -0.88041
 Alpha  occ. eigenvalues --   -0.72378  -0.58899  -0.55041  -0.53974  -0.49840
 Alpha  occ. eigenvalues --   -0.45446  -0.35644
 Alpha virt. eigenvalues --    0.06194   0.20870   0.22505   0.27204   0.28281
 Alpha virt. eigenvalues --    0.34900   0.36654   0.63196   0.63519   0.67907
 Alpha virt. eigenvalues --    0.72161   0.75803   0.83096   0.87475   0.96234
 Alpha virt. eigenvalues --    0.96944   1.01673   1.05459   1.06657   1.10730
 Alpha virt. eigenvalues --    1.20046   1.33126   1.50471   1.54225   1.60731
 Alpha virt. eigenvalues --    1.82692   1.91503   1.94270   1.95064   2.17481
 Alpha virt. eigenvalues --    2.20060   2.32973   2.35376   2.38102   2.66460
 Alpha virt. eigenvalues --    2.68079   2.93892   3.03029   3.86470   4.20511
 Alpha virt. eigenvalues --    4.46040
          Condensed to atoms (all electrons):
               1          2          3          4          5          6
     1  C    4.600791   0.311281  -0.018148   0.377367   0.539741  -0.018541
     2  C    0.311281   5.341207   0.343332  -0.101199  -0.076289   0.371851
     3  H   -0.018148   0.343332   0.550378   0.004772   0.003393  -0.024405
     4  H    0.377367  -0.101199   0.004772   0.608775  -0.051718   0.003124
     5  O    0.539741  -0.076289   0.003393  -0.051718   7.983515  -0.001012
     6  H   -0.018541   0.371851  -0.024405   0.003124  -0.001012   0.479184
     7  H   -0.018491   0.371741  -0.024484   0.003102  -0.001037  -0.016058
               7
     1  C   -0.018491
     2  C    0.371741
     3  H   -0.024484
     4  H    0.003102
     5  O   -0.001037
     6  H   -0.016058
     7  H    0.479507
 Mulliken charges:
               1
     1  C    0.226001
     2  C   -0.561924
     3  H    0.165161
     4  H    0.155778
     5  O   -0.396593
     6  H    0.205857
     7  H    0.205719
 Sum of Mulliken charges =  -0.00000
 Mulliken charges with hydrogens summed into heavy atoms:
               1
     1  C    0.381779
     2  C    0.014814
     5  O   -0.396593
 Electronic spatial extent (au):  <R**2>=            167.2230
 Charge=             -0.0000 electrons
 Dipole moment (field-independent basis, Debye):
    X=              2.5041    Y=              1.2392    Z=              0.0011  Tot=              2.7939
 Quadrupole moment (field-independent basis, Debye-Ang):
   XX=            -20.6738   YY=            -17.3315   ZZ=            -17.4593
   XY=             -1.4057   XZ=              0.0040   YZ=              0.0014
 Traceless Quadrupole moment (field-independent basis, Debye-Ang):
   XX=             -2.1856   YY=              1.1567   ZZ=              1.0289
   XY=             -1.4057   XZ=              0.0040   YZ=              0.0014
 Octapole moment (field-independent basis, Debye-Ang**2):
  XXX=              0.8021  YYY=              0.8672  ZZZ=              0.0136  XYY=             -0.8035
  XXY=              0.4624  XXZ=              0.0073  XZZ=             -0.9736  YZZ=             -1.1092
  YYZ=             -0.0129  XYZ=             -0.0025
 Hexadecapole moment (field-independent basis, Debye-Ang**3):
 XXXX=           -148.7026 YYYY=            -39.3511 ZZZZ=            -21.6620 XXXY=              1.0827
 XXXZ=              0.0118 YYYX=             -0.1975 YYYZ=              0.0139 ZZZX=              0.0260
 ZZZY=             -0.0022 XXYY=            -29.4027 XXZZ=            -26.5536 YYZZ=             -9.7918
 XXYZ=             -0.0119 YYXZ=             -0.0141 ZZXY=             -0.9820
 N-N= 6.930394844044D+01 E-N=-4.977542080553D+02  KE= 1.524260970927D+02
 1\1\GINC-NODE91\SP\RwB97X\6-31G(d)\C2H4O1\YANZ\05-Jun-2019\0\\# 6-31g(
 d) wb97x\\tmpdir/M2_conf_0_131.gjf\\0,1\C,0,0.,0.,0.\C,0,1.508,0.,0.\H
 ,0,1.89056,0.,1.02429\H,0,-0.50962,-0.00409,0.86689\O,0,-0.64964,0.006
 67,-1.06134\H,0,1.92038,0.88586,-0.50079\H,0,1.92103,-0.8867,-0.49943\
 \Version=ES64L-G16RevA.03\State=1-A\HF=-153.7743055\RMSD=2.588e-09\Dip
 ole=0.7232231,-0.0055417,0.8277557\Quadrupole=-0.5205712,0.7649522,-0.
 2443811,0.00756,-1.6176459,0.0043246\PG=C01 [X(C2H4O1)]\\@


 HOW IS IT THAT THE SKY FEEDS THE STARS?

                           -- LUCRETIUS
 Job cpu time:       0 days  0 hours  0 minutes 12.2 seconds.
 Elapsed time:       0 days  0 hours  0 minutes  6.3 seconds.
 File lengths (MBytes):  RWF=      6 Int=      0 D2E=      0 Chk=      1 Scr=      1
 Normal termination of Gaussian 16 at Wed Jun  5 17:00:14 2019.
