 Entering Gaussian System, Link 0=g16
 Initial command:
 /share/apps/gaussian/g16/l1.exe "/tmp/55477.mgr/Gau-325056.inp" -scrdir="/tmp/55477.mgr/"
 Entering Link 1 = /share/apps/gaussian/g16/l1.exe PID=    325057.
  
 Copyright (c) 1988,1990,1992,1993,1995,1998,2003,2009,2016,
            Gaussian, Inc.  All Rights Reserved.
  
 This is part of the Gaussian(R) 16 program.  It is based on
 the Gaussian(R) 09 system (copyright 2009, Gaussian, Inc.),
 the Gaussian(R) 03 system (copyright 2003, Gaussian, Inc.),
 the Gaussian(R) 98 system (copyright 1998, Gaussian, Inc.),
 the Gaussian(R) 94 system (copyright 1995, Gaussian, Inc.),
 the Gaussian 92(TM) system (copyright 1992, Gaussian, Inc.),
 the Gaussian 90(TM) system (copyright 1990, Gaussian, Inc.),
 the Gaussian 88(TM) system (copyright 1988, Gaussian, Inc.),
 the Gaussian 86(TM) system (copyright 1986, Carnegie Mellon
 University), and the Gaussian 82(TM) system (copyright 1983,
 Carnegie Mellon University). Gaussian is a federally registered
 trademark of Gaussian, Inc.
  
 This software contains proprietary and confidential information,
 including trade secrets, belonging to Gaussian, Inc.
  
 This software is provided under written license and may be
 used, copied, transmitted, or stored only in accord with that
 written license.
  
 The following legend is applicable only to US Government
 contracts under FAR:
  
                    RESTRICTED RIGHTS LEGEND
  
 Use, reproduction and disclosure by the US Government is
 subject to restrictions as set forth in subparagraphs (a)
 and (c) of the Commercial Computer Software - Restricted
 Rights clause in FAR 52.227-19.
  
 Gaussian, Inc.
 340 Quinnipiac St., Bldg. 40, Wallingford CT 06492
  
  
 ---------------------------------------------------------------
 Warning -- This program may not be used in any manner that
 competes with the business of Gaussian, Inc. or will provide
 assistance to any competitor of Gaussian, Inc.  The licensee
 of this program is prohibited from giving any competitor of
 Gaussian, Inc. access to this program.  By using this program,
 the user acknowledges that Gaussian, Inc. is engaged in the
 business of creating and licensing software in the field of
 computational chemistry and represents and warrants to the
 licensee that it is not a competitor of Gaussian, Inc. and that
 it will not use this program in any manner prohibited above.
 ---------------------------------------------------------------
  

 Cite this work as:
 Gaussian 16, Revision A.03,
 M. J. Frisch, G. W. Trucks, H. B. Schlegel, G. E. Scuseria, 
 M. A. Robb, J. R. Cheeseman, G. Scalmani, V. Barone, 
 G. A. Petersson, H. Nakatsuji, X. Li, M. Caricato, A. V. Marenich, 
 J. Bloino, B. G. Janesko, R. Gomperts, B. Mennucci, H. P. Hratchian, 
 J. V. Ortiz, A. F. Izmaylov, J. L. Sonnenberg, D. Williams-Young, 
 F. Ding, F. Lipparini, F. Egidi, J. Goings, B. Peng, A. Petrone, 
 T. Henderson, D. Ranasinghe, V. G. Zakrzewski, J. Gao, N. Rega, 
 G. Zheng, W. Liang, M. Hada, M. Ehara, K. Toyota, R. Fukuda, 
 J. Hasegawa, M. Ishida, T. Nakajima, Y. Honda, O. Kitao, H. Nakai, 
 T. Vreven, K. Throssell, J. A. Montgomery, Jr., J. E. Peralta, 
 F. Ogliaro, M. J. Bearpark, J. J. Heyd, E. N. Brothers, K. N. Kudin, 
 V. N. Staroverov, T. A. Keith, R. Kobayashi, J. Normand, 
 K. Raghavachari, A. P. Rendell, J. C. Burant, S. S. Iyengar, 
 J. Tomasi, M. Cossi, J. M. Millam, M. Klene, C. Adamo, R. Cammi, 
 J. W. Ochterski, R. L. Martin, K. Morokuma, O. Farkas, 
 J. B. Foresman, and D. J. Fox, Gaussian, Inc., Wallingford CT, 2016.
 
 ******************************************
 Gaussian 16:  ES64L-G16RevA.03 25-Dec-2016
                 5-Jun-2019 
 ******************************************
 %nprocshared=2
 Will use up to    2 processors via shared memory.
 %mem=2GB
 ----------------
 # 6-31g(d) wb97x
 ----------------
 1/38=1,172=1/1;
 2/12=2,17=6,18=5,40=1/2;
 3/5=1,6=6,7=1,11=2,25=1,30=1,74=-57/1,2,3;
 4//1;
 5/5=2,38=5/2;
 6/7=2,8=2,9=2,10=2,28=1/1;
 99/5=1,9=1/99;
 ------------------------
 tmpdir/M2_conf_1_183.gjf
 ------------------------
 Symbolic Z-matrix:
 Charge =  0 Multiplicity = 1
 H                     0.        0.        0. 
 C                     1.0861    0.        0. 
 C                     1.77849   0.        1.20654 
 H                     1.5926   -0.00484  -0.86675 
 H                     1.24071   0.01015   2.15367 
 H                     2.82562  -0.01373   1.27579 
 
                          Input orientation:                          
 ---------------------------------------------------------------------
 Center     Atomic      Atomic             Coordinates (Angstroms)
 Number     Number       Type             X           Y           Z
 ---------------------------------------------------------------------
      1          1           0        0.000000    0.000000    0.000000
      2          6           0        1.086100    0.000000    0.000000
      3          6           0        1.778490    0.000000    1.206540
      4          1           0        1.592600   -0.004840   -0.866750
      5          1           0        1.240710    0.010150    2.153670
      6          1           0        2.825620   -0.013730    1.275790
 ---------------------------------------------------------------------
                    Distance matrix (angstroms):
                    1          2          3          4          5
     1  H    0.000000
     2  C    1.086100   0.000000
     3  C    2.149131   1.391094   0.000000
     4  H    1.813189   1.003903   2.081612   0.000000
     5  H    2.485510   2.159236   1.089204   3.040886   0.000000
     6  H    3.100316   2.157257   1.049507   2.472022   1.811956
                    6
     6  H    0.000000
 Stoichiometry    C2H4
 Framework group  C1[X(C2H4)]
 Deg. of freedom    12
 Full point group                 C1      NOp   1
 Largest Abelian subgroup         C1      NOp   1
 Largest concise Abelian subgroup C1      NOp   1
                         Standard orientation:                         
 ---------------------------------------------------------------------
 Center     Atomic      Atomic             Coordinates (Angstroms)
 Number     Number       Type             X           Y           Z
 ---------------------------------------------------------------------
      1          1           0       -1.249394    0.923682    0.006645
      2          6           0       -0.701384   -0.013999   -0.000682
      3          6           0        0.689667   -0.003011   -0.000505
      4          1           0       -1.194150   -0.888641   -0.002742
      5          1           0        1.236048    0.939234   -0.003221
      6          1           0        1.277801   -0.872215    0.006439
 ---------------------------------------------------------------------
 Rotational constants (GHZ):         152.5183440          28.3813789          23.9288729
 Standard basis: 6-31G(d) (6D, 7F)
 There are    38 symmetry adapted cartesian basis functions of A   symmetry.
 There are    38 symmetry adapted basis functions of A   symmetry.
    38 basis functions,    72 primitive gaussians,    38 cartesian basis functions
     8 alpha electrons        8 beta electrons
       nuclear repulsion energy        33.0214280847 Hartrees.
 NAtoms=    6 NActive=    6 NUniq=    6 SFac= 1.00D+00 NAtFMM=   60 NAOKFM=F Big=F
 Integral buffers will be    131072 words long.
 Raffenetti 2 integral format.
 Two-electron integral symmetry is turned on.
 One-electron integrals computed using PRISM.
 NBasis=    38 RedAO= T EigKep=  9.10D-03  NBF=    38
 NBsUse=    38 1.00D-06 EigRej= -1.00D+00 NBFU=    38
 ExpMin= 1.61D-01 ExpMax= 3.05D+03 ExpMxC= 4.57D+02 IAcc=3 IRadAn=         5 AccDes= 0.00D+00
 Harris functional with IExCor= 4538 and IRadAn=       5 diagonalized for initial guess.
 HarFok:  IExCor= 4538 AccDes= 0.00D+00 IRadAn=         5 IDoV= 1 UseB2=F ITyADJ=14
 ICtDFT=  3500011 ScaDFX=  1.000000  1.000000  1.000000  1.000000
 FoFCou: FMM=F IPFlag=           0 FMFlag=      100000 FMFlg1=           0
         NFxFlg=           0 DoJE=T BraDBF=F KetDBF=T FulRan=T
         wScrn=  0.000000 ICntrl=       500 IOpCl=  0 I1Cent=   200000004 NGrid=           0
         NMat0=    1 NMatS0=      1 NMatT0=    0 NMatD0=    1 NMtDS0=    0 NMtDT0=    0
 Petite list used in FoFCou.
 Keep R1 ints in memory in canonical form, NReq=2276060.
 Requested convergence on RMS density matrix=1.00D-08 within 128 cycles.
 Requested convergence on MAX density matrix=1.00D-06.
 Requested convergence on             energy=1.00D-06.
 No special actions if energy rises.
 Integral accuracy reduced to 1.0D-05 until final iterations.
 Initial convergence to 1.0D-05 achieved.  Increase integral accuracy.
 SCF Done:  E(RwB97X) =  -78.5464823209     A.U. after   13 cycles
            NFock= 13  Conv=0.38D-08     -V/T= 2.0099

 **********************************************************************

            Population analysis using the SCF density.

 **********************************************************************

 Orbital symmetries:
       Occupied  (A) (A) (A) (A) (A) (A) (A) (A)
       Virtual   (A) (A) (A) (A) (A) (A) (A) (A) (A) (A) (A) (A)
                 (A) (A) (A) (A) (A) (A) (A) (A) (A) (A) (A) (A)
                 (A) (A) (A) (A) (A) (A)
 The electronic state is 1-A.
 Alpha  occ. eigenvalues --  -10.27098 -10.26655  -0.87601  -0.70933  -0.58027
 Alpha  occ. eigenvalues --   -0.51296  -0.46914  -0.35695
 Alpha virt. eigenvalues --    0.09958   0.22329   0.25593   0.26864   0.34885
 Alpha virt. eigenvalues --    0.41102   0.60046   0.65695   0.66557   0.74554
 Alpha virt. eigenvalues --    0.75851   0.77648   0.99162   1.00459   1.07006
 Alpha virt. eigenvalues --    1.09543   1.18922   1.32466   1.55276   1.66023
 Alpha virt. eigenvalues --    1.90918   2.02626   2.12695   2.15773   2.40748
 Alpha virt. eigenvalues --    2.43136   2.76484   2.79095   4.21302   4.39689
          Condensed to atoms (all electrons):
               1          2          3          4          5          6
     1  H    0.517864   0.386408  -0.032909  -0.033878  -0.005476   0.003377
     2  C    0.386408   4.963885   0.649350   0.396031  -0.033131  -0.032763
     3  C   -0.032909   0.649350   4.980805  -0.036192   0.385080   0.389346
     4  H   -0.033878   0.396031  -0.036192   0.503482   0.003772  -0.005037
     5  H   -0.005476  -0.033131   0.385080   0.003772   0.526600  -0.036842
     6  H    0.003377  -0.032763   0.389346  -0.005037  -0.036842   0.513092
 Mulliken charges:
               1
     1  H    0.164614
     2  C   -0.329780
     3  C   -0.335480
     4  H    0.171822
     5  H    0.159997
     6  H    0.168828
 Sum of Mulliken charges =   0.00000
 Mulliken charges with hydrogens summed into heavy atoms:
               1
     2  C    0.006655
     3  C   -0.006655
 Electronic spatial extent (au):  <R**2>=             83.3640
 Charge=              0.0000 electrons
 Dipole moment (field-independent basis, Debye):
    X=              0.0090    Y=             -0.0306    Z=              0.0067  Tot=              0.0326
 Quadrupole moment (field-independent basis, Debye-Ang):
   XX=            -11.7748   YY=            -11.9975   ZZ=            -15.1534
   XY=             -0.0575   XZ=             -0.0005   YZ=              0.0004
 Traceless Quadrupole moment (field-independent basis, Debye-Ang):
   XX=              1.2004   YY=              0.9777   ZZ=             -2.1782
   XY=             -0.0575   XZ=             -0.0005   YZ=              0.0004
 Octapole moment (field-independent basis, Debye-Ang**2):
  XXX=              0.1125  YYY=             -0.0866  ZZZ=              0.0096  XYY=             -0.0994
  XXY=             -0.1035  XXZ=              0.0168  XZZ=             -0.0470  YZZ=             -0.1041
  YYZ=              0.0091  XYZ=             -0.0249
 Hexadecapole moment (field-independent basis, Debye-Ang**3):
 XXXX=            -67.9604 YYYY=            -24.7511 ZZZZ=            -15.9040 XXXY=             -0.2939
 XXXZ=              0.0002 YYYX=              0.0304 YYYZ=              0.0010 ZZZX=              0.0009
 ZZZY=              0.0003 XXYY=            -13.0052 XXZZ=            -14.9288 YYZZ=             -7.3564
 XXYZ=             -0.0004 YYXZ=             -0.0019 ZZXY=              0.0278
 N-N= 3.302142808472D+01 E-N=-2.473512724867D+02  KE= 7.777440075433D+01
 1\1\GINC-NODE91\SP\RwB97X\6-31G(d)\C2H4\YANZ\05-Jun-2019\0\\# 6-31g(d)
  wb97x\\tmpdir/M2_conf_1_183.gjf\\0,1\H,0,0.,0.,0.\C,0,1.0861,0.,0.\C,
 0,1.77849,0.,1.20654\H,0,1.5926,-0.00484,-0.86675\H,0,1.24071,0.01015,
 2.15367\H,0,2.82562,-0.01373,1.27579\\Version=ES64L-G16RevA.03\State=1
 -A\HF=-78.5464823\RMSD=3.847e-09\Dipole=0.0121633,-0.0027347,-0.002995
 2\Quadrupole=0.8061959,-1.6192725,0.8130766,-0.0155596,0.0931486,0.009
 3209\PG=C01 [X(C2H4)]\\@


 HICKORY, DICKORY, DOCK
 TWO MICE RAN UP THE CLOCK
 THE CLOCK STRUCK ONE...
 THE OTHER ESCAPED WITH MINOR INJURIES.
 Job cpu time:       0 days  0 hours  0 minutes  8.4 seconds.
 Elapsed time:       0 days  0 hours  0 minutes  4.3 seconds.
 File lengths (MBytes):  RWF=      6 Int=      0 D2E=      0 Chk=      1 Scr=      1
 Normal termination of Gaussian 16 at Wed Jun  5 17:03:03 2019.
