 Entering Gaussian System, Link 0=g16
 Initial command:
 /share/apps/gaussian/g16/l1.exe "/tmp/55477.mgr/Gau-321008.inp" -scrdir="/tmp/55477.mgr/"
 Entering Link 1 = /share/apps/gaussian/g16/l1.exe PID=    321009.
  
 Copyright (c) 1988,1990,1992,1993,1995,1998,2003,2009,2016,
            Gaussian, Inc.  All Rights Reserved.
  
 This is part of the Gaussian(R) 16 program.  It is based on
 the Gaussian(R) 09 system (copyright 2009, Gaussian, Inc.),
 the Gaussian(R) 03 system (copyright 2003, Gaussian, Inc.),
 the Gaussian(R) 98 system (copyright 1998, Gaussian, Inc.),
 the Gaussian(R) 94 system (copyright 1995, Gaussian, Inc.),
 the Gaussian 92(TM) system (copyright 1992, Gaussian, Inc.),
 the Gaussian 90(TM) system (copyright 1990, Gaussian, Inc.),
 the Gaussian 88(TM) system (copyright 1988, Gaussian, Inc.),
 the Gaussian 86(TM) system (copyright 1986, Carnegie Mellon
 University), and the Gaussian 82(TM) system (copyright 1983,
 Carnegie Mellon University). Gaussian is a federally registered
 trademark of Gaussian, Inc.
  
 This software contains proprietary and confidential information,
 including trade secrets, belonging to Gaussian, Inc.
  
 This software is provided under written license and may be
 used, copied, transmitted, or stored only in accord with that
 written license.
  
 The following legend is applicable only to US Government
 contracts under FAR:
  
                    RESTRICTED RIGHTS LEGEND
  
 Use, reproduction and disclosure by the US Government is
 subject to restrictions as set forth in subparagraphs (a)
 and (c) of the Commercial Computer Software - Restricted
 Rights clause in FAR 52.227-19.
  
 Gaussian, Inc.
 340 Quinnipiac St., Bldg. 40, Wallingford CT 06492
  
  
 ---------------------------------------------------------------
 Warning -- This program may not be used in any manner that
 competes with the business of Gaussian, Inc. or will provide
 assistance to any competitor of Gaussian, Inc.  The licensee
 of this program is prohibited from giving any competitor of
 Gaussian, Inc. access to this program.  By using this program,
 the user acknowledges that Gaussian, Inc. is engaged in the
 business of creating and licensing software in the field of
 computational chemistry and represents and warrants to the
 licensee that it is not a competitor of Gaussian, Inc. and that
 it will not use this program in any manner prohibited above.
 ---------------------------------------------------------------
  

 Cite this work as:
 Gaussian 16, Revision A.03,
 M. J. Frisch, G. W. Trucks, H. B. Schlegel, G. E. Scuseria, 
 M. A. Robb, J. R. Cheeseman, G. Scalmani, V. Barone, 
 G. A. Petersson, H. Nakatsuji, X. Li, M. Caricato, A. V. Marenich, 
 J. Bloino, B. G. Janesko, R. Gomperts, B. Mennucci, H. P. Hratchian, 
 J. V. Ortiz, A. F. Izmaylov, J. L. Sonnenberg, D. Williams-Young, 
 F. Ding, F. Lipparini, F. Egidi, J. Goings, B. Peng, A. Petrone, 
 T. Henderson, D. Ranasinghe, V. G. Zakrzewski, J. Gao, N. Rega, 
 G. Zheng, W. Liang, M. Hada, M. Ehara, K. Toyota, R. Fukuda, 
 J. Hasegawa, M. Ishida, T. Nakajima, Y. Honda, O. Kitao, H. Nakai, 
 T. Vreven, K. Throssell, J. A. Montgomery, Jr., J. E. Peralta, 
 F. Ogliaro, M. J. Bearpark, J. J. Heyd, E. N. Brothers, K. N. Kudin, 
 V. N. Staroverov, T. A. Keith, R. Kobayashi, J. Normand, 
 K. Raghavachari, A. P. Rendell, J. C. Burant, S. S. Iyengar, 
 J. Tomasi, M. Cossi, J. M. Millam, M. Klene, C. Adamo, R. Cammi, 
 J. W. Ochterski, R. L. Martin, K. Morokuma, O. Farkas, 
 J. B. Foresman, and D. J. Fox, Gaussian, Inc., Wallingford CT, 2016.
 
 ******************************************
 Gaussian 16:  ES64L-G16RevA.03 25-Dec-2016
                 5-Jun-2019 
 ******************************************
 %nprocshared=2
 Will use up to    2 processors via shared memory.
 %mem=2GB
 ----------------
 # 6-31g(d) wb97x
 ----------------
 1/38=1,172=1/1;
 2/12=2,17=6,18=5,40=1/2;
 3/5=1,6=6,7=1,11=2,25=1,30=1,74=-57/1,2,3;
 4//1;
 5/5=2,38=5/2;
 6/7=2,8=2,9=2,10=2,28=1/1;
 99/5=1,9=1/99;
 ------------------------
 tmpdir/M2_conf_0_105.gjf
 ------------------------
 Symbolic Z-matrix:
 Charge =  0 Multiplicity = 1
 N                     0.        0.        0. 
 C                     1.4144    0.        0. 
 C                     2.25019   0.        1.11641 
 H                    -0.59206   0.32757   0.67973 
 H                    -0.42339  -0.20369  -0.89294 
 H                     1.87686  -0.03268  -0.8954 
 H                     1.83672   0.0246    2.11112 
 H                     3.25313  -0.02364   0.9888 
 
                          Input orientation:                          
 ---------------------------------------------------------------------
 Center     Atomic      Atomic             Coordinates (Angstroms)
 Number     Number       Type             X           Y           Z
 ---------------------------------------------------------------------
      1          7           0        0.000000    0.000000    0.000000
      2          6           0        1.414400    0.000000    0.000000
      3          6           0        2.250190    0.000000    1.116410
      4          1           0       -0.592060    0.327570    0.679730
      5          1           0       -0.423390   -0.203690   -0.892940
      6          1           0        1.876860   -0.032680   -0.895400
      7          1           0        1.836720    0.024600    2.111120
      8          1           0        3.253130   -0.023640    0.988800
 ---------------------------------------------------------------------
                    Distance matrix (angstroms):
                    1          2          3          4          5
     1  N    0.000000
     2  C    1.414400   0.000000
     3  C    2.511917   1.394603   0.000000
     4  H    0.959099   2.143646   2.894197   0.000000
     5  H    1.009005   2.053364   3.350673   1.668526   0.000000
     6  H    2.079763   1.008305   2.046417   2.950658   2.306599
     7  H    2.798388   2.153088   1.077502   2.835426   3.766243
     8  H    3.400168   2.087873   1.011302   3.873546   4.134025
                    6          7          8
     6  H    0.000000
     7  H    3.007333   0.000000
     8  H    2.333326   1.807802   0.000000
 Stoichiometry    C2H5N
 Framework group  C1[X(C2H5N)]
 Deg. of freedom    18
 Full point group                 C1      NOp   1
 Largest Abelian subgroup         C1      NOp   1
 Largest concise Abelian subgroup C1      NOp   1
                         Standard orientation:                         
 ---------------------------------------------------------------------
 Center     Atomic      Atomic             Coordinates (Angstroms)
 Number     Number       Type             X           Y           Z
 ---------------------------------------------------------------------
      1          7           0       -1.204666   -0.185986   -0.021660
      2          6           0        0.065437    0.434225    0.030343
      3          6           0        1.307211   -0.198842   -0.015917
      4          1           0       -1.438102   -1.079771    0.236266
      5          1           0       -1.977234    0.443746   -0.178716
      6          1           0        0.086804    1.441245    0.076513
      7          1           0        1.373558   -1.272664   -0.075190
      8          1           0        2.151743    0.357045    0.006190
 ---------------------------------------------------------------------
 Rotational constants (GHZ):          58.9792405           9.4292903           8.1607341
 Standard basis: 6-31G(d) (6D, 7F)
 There are    55 symmetry adapted cartesian basis functions of A   symmetry.
 There are    55 symmetry adapted basis functions of A   symmetry.
    55 basis functions,   104 primitive gaussians,    55 cartesian basis functions
    12 alpha electrons       12 beta electrons
       nuclear repulsion energy        70.8166601384 Hartrees.
 NAtoms=    8 NActive=    8 NUniq=    8 SFac= 1.00D+00 NAtFMM=   60 NAOKFM=F Big=F
 Integral buffers will be    131072 words long.
 Raffenetti 2 integral format.
 Two-electron integral symmetry is turned on.
 One-electron integrals computed using PRISM.
 NBasis=    55 RedAO= T EigKep=  6.03D-03  NBF=    55
 NBsUse=    55 1.00D-06 EigRej= -1.00D+00 NBFU=    55
 ExpMin= 1.61D-01 ExpMax= 4.17D+03 ExpMxC= 6.27D+02 IAcc=3 IRadAn=         5 AccDes= 0.00D+00
 Harris functional with IExCor= 4538 and IRadAn=       5 diagonalized for initial guess.
 HarFok:  IExCor= 4538 AccDes= 0.00D+00 IRadAn=         5 IDoV= 1 UseB2=F ITyADJ=14
 ICtDFT=  3500011 ScaDFX=  1.000000  1.000000  1.000000  1.000000
 FoFCou: FMM=F IPFlag=           0 FMFlag=      100000 FMFlg1=           0
         NFxFlg=           0 DoJE=T BraDBF=F KetDBF=T FulRan=T
         wScrn=  0.000000 ICntrl=       500 IOpCl=  0 I1Cent=   200000004 NGrid=           0
         NMat0=    1 NMatS0=      1 NMatT0=    0 NMatD0=    1 NMtDS0=    0 NMtDT0=    0
 Petite list used in FoFCou.
 Keep R1 ints in memory in canonical form, NReq=4125101.
 Requested convergence on RMS density matrix=1.00D-08 within 128 cycles.
 Requested convergence on MAX density matrix=1.00D-06.
 Requested convergence on             energy=1.00D-06.
 No special actions if energy rises.
 Integral accuracy reduced to 1.0D-05 until final iterations.
 Initial convergence to 1.0D-05 achieved.  Increase integral accuracy.
 SCF Done:  E(RwB97X) =  -133.879120119     A.U. after   14 cycles
            NFock= 14  Conv=0.99D-08     -V/T= 2.0091

 **********************************************************************

            Population analysis using the SCF density.

 **********************************************************************

 Orbital symmetries:
       Occupied  (A) (A) (A) (A) (A) (A) (A) (A) (A) (A) (A) (A)
       Virtual   (A) (A) (A) (A) (A) (A) (A) (A) (A) (A) (A) (A)
                 (A) (A) (A) (A) (A) (A) (A) (A) (A) (A) (A) (A)
                 (A) (A) (A) (A) (A) (A) (A) (A) (A) (A) (A) (A)
                 (A) (A) (A) (A) (A) (A) (A)
 The electronic state is 1-A.
 Alpha  occ. eigenvalues --  -14.40584 -10.29760 -10.22844  -1.02019  -0.84560
 Alpha  occ. eigenvalues --   -0.70893  -0.62527  -0.58761  -0.50352  -0.47307
 Alpha  occ. eigenvalues --   -0.42439  -0.28268
 Alpha virt. eigenvalues --    0.13647   0.19089   0.24152   0.25919   0.29708
 Alpha virt. eigenvalues --    0.31806   0.42393   0.44349   0.62496   0.66543
 Alpha virt. eigenvalues --    0.68362   0.75483   0.76665   0.78823   0.83443
 Alpha virt. eigenvalues --    0.86487   1.01156   1.02920   1.05502   1.07193
 Alpha virt. eigenvalues --    1.11448   1.19250   1.22485   1.33729   1.44406
 Alpha virt. eigenvalues --    1.58122   1.58922   1.80486   1.84934   1.98957
 Alpha virt. eigenvalues --    2.06923   2.15529   2.28339   2.32463   2.37157
 Alpha virt. eigenvalues --    2.49905   2.62303   2.70222   2.85696   3.06145
 Alpha virt. eigenvalues --    3.89778   4.25476   4.47519
          Condensed to atoms (all electrons):
               1          2          3          4          5          6
     1  N    6.873280   0.336359  -0.055618   0.342113   0.337118  -0.048523
     2  C    0.336359   4.641280   0.671651  -0.018360  -0.026380   0.394376
     3  C   -0.055618   0.671651   5.071504  -0.002569   0.003048  -0.045184
     4  H    0.342113  -0.018360  -0.002569   0.351384  -0.026336   0.003412
     5  H    0.337118  -0.026380   0.003048  -0.026336   0.380547  -0.003742
     6  H   -0.048523   0.394376  -0.045184   0.003412  -0.003742   0.537787
     7  H   -0.005076  -0.036577   0.385294   0.001965  -0.000008   0.004700
     8  H    0.003294  -0.025805   0.390846  -0.000057  -0.000129  -0.005198
               7          8
     1  N   -0.005076   0.003294
     2  C   -0.036577  -0.025805
     3  C    0.385294   0.390846
     4  H    0.001965  -0.000057
     5  H   -0.000008  -0.000129
     6  H    0.004700  -0.005198
     7  H    0.545613  -0.034146
     8  H   -0.034146   0.517666
 Mulliken charges:
               1
     1  N   -0.782949
     2  C    0.063455
     3  C   -0.418973
     4  H    0.348448
     5  H    0.335881
     6  H    0.162372
     7  H    0.138235
     8  H    0.153530
 Sum of Mulliken charges =   0.00000
 Mulliken charges with hydrogens summed into heavy atoms:
               1
     1  N   -0.098620
     2  C    0.225827
     3  C   -0.127207
 Electronic spatial extent (au):  <R**2>=            182.1182
 Charge=             -0.0000 electrons
 Dipole moment (field-independent basis, Debye):
    X=             -1.6958    Y=              0.2485    Z=              0.2744  Tot=              1.7358
 Quadrupole moment (field-independent basis, Debye-Ang):
   XX=            -15.6823   YY=            -15.8832   ZZ=            -21.9998
   XY=              0.3712   XZ=             -0.1470   YZ=             -0.6382
 Traceless Quadrupole moment (field-independent basis, Debye-Ang):
   XX=              2.1728   YY=              1.9719   ZZ=             -4.1447
   XY=              0.3712   XZ=             -0.1470   YZ=             -0.6382
 Octapole moment (field-independent basis, Debye-Ang**2):
  XXX=            -11.5015  YYY=             -1.2652  ZZZ=              0.2746  XYY=             -3.5671
  XXY=              0.7595  XXZ=             -0.2650  XZZ=             -2.0970  YZZ=              0.1172
  YYZ=              0.5980  XYZ=              1.3605
 Hexadecapole moment (field-independent basis, Debye-Ang**3):
 XXXX=           -144.1285 YYYY=            -39.5121 ZZZZ=            -22.6874 XXXY=              1.9560
 XXXZ=              0.8833 YYYX=              2.8936 YYYZ=             -0.7931 ZZZX=             -0.1974
 ZZZY=             -0.5335 XXYY=            -29.7725 XXZZ=            -35.5311 YYZZ=            -11.6220
 XXYZ=             -1.7655 YYXZ=             -0.8293 ZZXY=              0.3579
 N-N= 7.081666013838D+01 E-N=-4.523494144719D+02  KE= 1.326679496797D+02
 1\1\GINC-NODE91\SP\RwB97X\6-31G(d)\C2H5N1\YANZ\05-Jun-2019\0\\# 6-31g(
 d) wb97x\\tmpdir/M2_conf_0_105.gjf\\0,1\N,0,0.,0.,0.\C,0,1.4144,0.,0.\
 C,0,2.25019,0.,1.11641\H,0,-0.59206,0.32757,0.67973\H,0,-0.42339,-0.20
 369,-0.89294\H,0,1.87686,-0.03268,-0.8954\H,0,1.83672,0.0246,2.11112\H
 ,0,3.25313,-0.02364,0.9888\\Version=ES64L-G16RevA.03\State=1-A\HF=-133
 .8791201\RMSD=9.941e-09\Dipole=-0.5522793,0.1017894,-0.3885612\Quadrup
 ole=1.7751823,-2.9791498,1.2039674,-0.4905912,-0.0630977,0.6766796\PG=
 C01 [X(C2H5N1)]\\@


 DO YOU KNOW THAT THE LETTERS IN "EPISCOPAL", WHEN
 REARRANGED, SPELL "PEPSI COLA"?
 Job cpu time:       0 days  0 hours  0 minutes 14.1 seconds.
 Elapsed time:       0 days  0 hours  0 minutes  7.2 seconds.
 File lengths (MBytes):  RWF=      6 Int=      0 D2E=      0 Chk=      1 Scr=      1
 Normal termination of Gaussian 16 at Wed Jun  5 16:59:49 2019.
