 Entering Gaussian System, Link 0=g16
 Initial command:
 /share/apps/gaussian/g16/l1.exe "/tmp/55477.mgr/Gau-326417.inp" -scrdir="/tmp/55477.mgr/"
 Entering Link 1 = /share/apps/gaussian/g16/l1.exe PID=    326419.
  
 Copyright (c) 1988,1990,1992,1993,1995,1998,2003,2009,2016,
            Gaussian, Inc.  All Rights Reserved.
  
 This is part of the Gaussian(R) 16 program.  It is based on
 the Gaussian(R) 09 system (copyright 2009, Gaussian, Inc.),
 the Gaussian(R) 03 system (copyright 2003, Gaussian, Inc.),
 the Gaussian(R) 98 system (copyright 1998, Gaussian, Inc.),
 the Gaussian(R) 94 system (copyright 1995, Gaussian, Inc.),
 the Gaussian 92(TM) system (copyright 1992, Gaussian, Inc.),
 the Gaussian 90(TM) system (copyright 1990, Gaussian, Inc.),
 the Gaussian 88(TM) system (copyright 1988, Gaussian, Inc.),
 the Gaussian 86(TM) system (copyright 1986, Carnegie Mellon
 University), and the Gaussian 82(TM) system (copyright 1983,
 Carnegie Mellon University). Gaussian is a federally registered
 trademark of Gaussian, Inc.
  
 This software contains proprietary and confidential information,
 including trade secrets, belonging to Gaussian, Inc.
  
 This software is provided under written license and may be
 used, copied, transmitted, or stored only in accord with that
 written license.
  
 The following legend is applicable only to US Government
 contracts under FAR:
  
                    RESTRICTED RIGHTS LEGEND
  
 Use, reproduction and disclosure by the US Government is
 subject to restrictions as set forth in subparagraphs (a)
 and (c) of the Commercial Computer Software - Restricted
 Rights clause in FAR 52.227-19.
  
 Gaussian, Inc.
 340 Quinnipiac St., Bldg. 40, Wallingford CT 06492
  
  
 ---------------------------------------------------------------
 Warning -- This program may not be used in any manner that
 competes with the business of Gaussian, Inc. or will provide
 assistance to any competitor of Gaussian, Inc.  The licensee
 of this program is prohibited from giving any competitor of
 Gaussian, Inc. access to this program.  By using this program,
 the user acknowledges that Gaussian, Inc. is engaged in the
 business of creating and licensing software in the field of
 computational chemistry and represents and warrants to the
 licensee that it is not a competitor of Gaussian, Inc. and that
 it will not use this program in any manner prohibited above.
 ---------------------------------------------------------------
  

 Cite this work as:
 Gaussian 16, Revision A.03,
 M. J. Frisch, G. W. Trucks, H. B. Schlegel, G. E. Scuseria, 
 M. A. Robb, J. R. Cheeseman, G. Scalmani, V. Barone, 
 G. A. Petersson, H. Nakatsuji, X. Li, M. Caricato, A. V. Marenich, 
 J. Bloino, B. G. Janesko, R. Gomperts, B. Mennucci, H. P. Hratchian, 
 J. V. Ortiz, A. F. Izmaylov, J. L. Sonnenberg, D. Williams-Young, 
 F. Ding, F. Lipparini, F. Egidi, J. Goings, B. Peng, A. Petrone, 
 T. Henderson, D. Ranasinghe, V. G. Zakrzewski, J. Gao, N. Rega, 
 G. Zheng, W. Liang, M. Hada, M. Ehara, K. Toyota, R. Fukuda, 
 J. Hasegawa, M. Ishida, T. Nakajima, Y. Honda, O. Kitao, H. Nakai, 
 T. Vreven, K. Throssell, J. A. Montgomery, Jr., J. E. Peralta, 
 F. Ogliaro, M. J. Bearpark, J. J. Heyd, E. N. Brothers, K. N. Kudin, 
 V. N. Staroverov, T. A. Keith, R. Kobayashi, J. Normand, 
 K. Raghavachari, A. P. Rendell, J. C. Burant, S. S. Iyengar, 
 J. Tomasi, M. Cossi, J. M. Millam, M. Klene, C. Adamo, R. Cammi, 
 J. W. Ochterski, R. L. Martin, K. Morokuma, O. Farkas, 
 J. B. Foresman, and D. J. Fox, Gaussian, Inc., Wallingford CT, 2016.
 
 ******************************************
 Gaussian 16:  ES64L-G16RevA.03 25-Dec-2016
                 5-Jun-2019 
 ******************************************
 %nprocshared=2
 Will use up to    2 processors via shared memory.
 %mem=2GB
 ----------------
 # 6-31g(d) wb97x
 ----------------
 1/38=1,172=1/1;
 2/12=2,17=6,18=5,40=1/2;
 3/5=1,6=6,7=1,11=2,25=1,30=1,74=-57/1,2,3;
 4//1;
 5/5=2,38=5/2;
 6/7=2,8=2,9=2,10=2,28=1/1;
 99/5=1,9=1/99;
 -----------------------
 tmpdir/M2_conf_2_73.gjf
 -----------------------
 Symbolic Z-matrix:
 Charge =  0 Multiplicity = 1
 H                     0.        0.        0. 
 C                     1.0869    0.        0. 
 C                     1.79014   0.        1.19817 
 H                     1.57192  -0.00371  -0.88626 
 H                     1.23757   0.04101   2.13485 
 H                     2.80144   0.00015   1.19799 
 
                          Input orientation:                          
 ---------------------------------------------------------------------
 Center     Atomic      Atomic             Coordinates (Angstroms)
 Number     Number       Type             X           Y           Z
 ---------------------------------------------------------------------
      1          1           0        0.000000    0.000000    0.000000
      2          6           0        1.086900    0.000000    0.000000
      3          6           0        1.790140    0.000000    1.198170
      4          1           0        1.571920   -0.003710   -0.886260
      5          1           0        1.237570    0.041010    2.134850
      6          1           0        2.801440    0.000150    1.197990
 ---------------------------------------------------------------------
                    Distance matrix (angstroms):
                    1          2          3          4          5
     1  H    0.000000
     2  C    1.086900   0.000000
     3  C    2.154115   1.389301   0.000000
     4  H    1.804551   1.010304   2.095825   0.000000
     5  H    2.467964   2.140553   1.088294   3.039884   0.000000
     6  H    3.046842   2.091609   1.011300   2.419883   1.823476
                    6
     6  H    0.000000
 Stoichiometry    C2H4
 Framework group  C1[X(C2H4)]
 Deg. of freedom    12
 Full point group                 C1      NOp   1
 Largest Abelian subgroup         C1      NOp   1
 Largest concise Abelian subgroup C1      NOp   1
                         Standard orientation:                         
 ---------------------------------------------------------------------
 Center     Atomic      Atomic             Coordinates (Angstroms)
 Number     Number       Type             X           Y           Z
 ---------------------------------------------------------------------
      1          1           0        1.243464    0.927410   -0.008299
      2          6           0        0.692828   -0.009642    0.001014
      3          6           0       -0.696457   -0.009025   -0.005476
      4          1           0        1.211229   -0.876753    0.010718
      5          1           0       -1.224281    0.942335    0.021011
      6          1           0       -1.208638   -0.880989    0.003341
 ---------------------------------------------------------------------
 Rotational constants (GHZ):         152.1636122          28.7123817          24.1567458
 Standard basis: 6-31G(d) (6D, 7F)
 There are    38 symmetry adapted cartesian basis functions of A   symmetry.
 There are    38 symmetry adapted basis functions of A   symmetry.
    38 basis functions,    72 primitive gaussians,    38 cartesian basis functions
     8 alpha electrons        8 beta electrons
       nuclear repulsion energy        33.1876405979 Hartrees.
 NAtoms=    6 NActive=    6 NUniq=    6 SFac= 1.00D+00 NAtFMM=   60 NAOKFM=F Big=F
 Integral buffers will be    131072 words long.
 Raffenetti 2 integral format.
 Two-electron integral symmetry is turned on.
 One-electron integrals computed using PRISM.
 NBasis=    38 RedAO= T EigKep=  8.90D-03  NBF=    38
 NBsUse=    38 1.00D-06 EigRej= -1.00D+00 NBFU=    38
 ExpMin= 1.61D-01 ExpMax= 3.05D+03 ExpMxC= 4.57D+02 IAcc=3 IRadAn=         5 AccDes= 0.00D+00
 Harris functional with IExCor= 4538 and IRadAn=       5 diagonalized for initial guess.
 HarFok:  IExCor= 4538 AccDes= 0.00D+00 IRadAn=         5 IDoV= 1 UseB2=F ITyADJ=14
 ICtDFT=  3500011 ScaDFX=  1.000000  1.000000  1.000000  1.000000
 FoFCou: FMM=F IPFlag=           0 FMFlag=      100000 FMFlg1=           0
         NFxFlg=           0 DoJE=T BraDBF=F KetDBF=T FulRan=T
         wScrn=  0.000000 ICntrl=       500 IOpCl=  0 I1Cent=   200000004 NGrid=           0
         NMat0=    1 NMatS0=      1 NMatT0=    0 NMatD0=    1 NMtDS0=    0 NMtDT0=    0
 Petite list used in FoFCou.
 Keep R1 ints in memory in canonical form, NReq=2276060.
 Requested convergence on RMS density matrix=1.00D-08 within 128 cycles.
 Requested convergence on MAX density matrix=1.00D-06.
 Requested convergence on             energy=1.00D-06.
 No special actions if energy rises.
 Integral accuracy reduced to 1.0D-05 until final iterations.
 Initial convergence to 1.0D-05 achieved.  Increase integral accuracy.
 SCF Done:  E(RwB97X) =  -78.5442556392     A.U. after   12 cycles
            NFock= 12  Conv=0.79D-08     -V/T= 2.0092

 **********************************************************************

            Population analysis using the SCF density.

 **********************************************************************

 Orbital symmetries:
       Occupied  (A) (A) (A) (A) (A) (A) (A) (A)
       Virtual   (A) (A) (A) (A) (A) (A) (A) (A) (A) (A) (A) (A)
                 (A) (A) (A) (A) (A) (A) (A) (A) (A) (A) (A) (A)
                 (A) (A) (A) (A) (A) (A)
 The electronic state is 1-A.
 Alpha  occ. eigenvalues --  -10.26646 -10.26569  -0.87781  -0.70998  -0.58450
 Alpha  occ. eigenvalues --   -0.51019  -0.47257  -0.35697
 Alpha virt. eigenvalues --    0.10024   0.22258   0.26286   0.27021   0.35047
 Alpha virt. eigenvalues --    0.40990   0.59727   0.66109   0.66583   0.74650
 Alpha virt. eigenvalues --    0.75703   0.77883   0.99840   1.00341   1.08393
 Alpha virt. eigenvalues --    1.09719   1.19218   1.34608   1.55417   1.65933
 Alpha virt. eigenvalues --    1.90763   2.02871   2.12841   2.18240   2.42135
 Alpha virt. eigenvalues --    2.43516   2.76581   2.78897   4.21757   4.40027
          Condensed to atoms (all electrons):
               1          2          3          4          5          6
     1  H    0.522189   0.386134  -0.032799  -0.035374  -0.005687   0.003739
     2  C    0.386134   4.970654   0.651256   0.394957  -0.034089  -0.035878
     3  C   -0.032799   0.651256   4.968315  -0.035560   0.386089   0.395181
     4  H   -0.035374   0.394957  -0.035560   0.507483   0.003816  -0.005599
     5  H   -0.005687  -0.034089   0.386089   0.003816   0.521077  -0.033491
     6  H    0.003739  -0.035878   0.395181  -0.005599  -0.033491   0.504891
 Mulliken charges:
               1
     1  H    0.161797
     2  C   -0.333034
     3  C   -0.332483
     4  H    0.170277
     5  H    0.162286
     6  H    0.171157
 Sum of Mulliken charges =  -0.00000
 Mulliken charges with hydrogens summed into heavy atoms:
               1
     2  C   -0.000960
     3  C    0.000960
 Electronic spatial extent (au):  <R**2>=             82.6932
 Charge=              0.0000 electrons
 Dipole moment (field-independent basis, Debye):
    X=              0.0097    Y=             -0.0409    Z=              0.0257  Tot=              0.0493
 Quadrupole moment (field-independent basis, Debye-Ang):
   XX=            -11.8785   YY=            -11.9075   ZZ=            -15.1120
   XY=              0.0143   XZ=             -0.0274   YZ=             -0.0002
 Traceless Quadrupole moment (field-independent basis, Debye-Ang):
   XX=              1.0875   YY=              1.0585   ZZ=             -2.1460
   XY=              0.0143   XZ=             -0.0274   YZ=             -0.0002
 Octapole moment (field-independent basis, Debye-Ang**2):
  XXX=              0.1224  YYY=             -0.1383  ZZZ=              0.0390  XYY=             -0.0406
  XXY=             -0.0767  XXZ=              0.0566  XZZ=              0.0099  YZZ=             -0.1329
  YYZ=              0.0365  XYZ=             -0.0484
 Hexadecapole moment (field-independent basis, Debye-Ang**3):
 XXXX=            -67.4604 YYYY=            -24.4937 ZZZZ=            -15.8501 XXXY=              0.0825
 XXXZ=             -0.0701 YYYX=             -0.0011 YYYZ=              0.0003 ZZZX=             -0.0237
 ZZZY=             -0.0024 XXYY=            -12.9045 XXZZ=            -14.7339 YYZZ=             -7.3110
 XXYZ=             -0.0000 YYXZ=             -0.0419 ZZXY=              0.0034
 N-N= 3.318764059789D+01 E-N=-2.477256416366D+02  KE= 7.783194283357D+01
 1\1\GINC-NODE91\SP\RwB97X\6-31G(d)\C2H4\YANZ\05-Jun-2019\0\\# 6-31g(d)
  wb97x\\tmpdir/M2_conf_2_73.gjf\\0,1\H,0,0.,0.,0.\C,0,1.0869,0.,0.\C,0
 ,1.79014,0.,1.19817\H,0,1.57192,-0.00371,-0.88626\H,0,1.23757,0.04101,
 2.13485\H,0,2.80144,0.00015,1.19799\\Version=ES64L-G16RevA.03\State=1-
 A\HF=-78.5442556\RMSD=7.899e-09\Dipole=0.0120424,0.0099022,-0.0115347\
 Quadrupole=0.8017956,-1.5948895,0.7930939,-0.0099377,0.0148328,0.04234
 71\PG=C01 [X(C2H4)]\\@


 IT'S WHAT YOU LEARN AFTER YOU KNOW IT ALL
 THAT COUNTS.
 Job cpu time:       0 days  0 hours  0 minutes  7.5 seconds.
 Elapsed time:       0 days  0 hours  0 minutes  3.8 seconds.
 File lengths (MBytes):  RWF=      6 Int=      0 D2E=      0 Chk=      1 Scr=      1
 Normal termination of Gaussian 16 at Wed Jun  5 17:04:12 2019.
