 Entering Gaussian System, Link 0=g16
 Initial command:
 /share/apps/gaussian/g16/l1.exe "/tmp/55477.mgr/Gau-324958.inp" -scrdir="/tmp/55477.mgr/"
 Entering Link 1 = /share/apps/gaussian/g16/l1.exe PID=    324959.
  
 Copyright (c) 1988,1990,1992,1993,1995,1998,2003,2009,2016,
            Gaussian, Inc.  All Rights Reserved.
  
 This is part of the Gaussian(R) 16 program.  It is based on
 the Gaussian(R) 09 system (copyright 2009, Gaussian, Inc.),
 the Gaussian(R) 03 system (copyright 2003, Gaussian, Inc.),
 the Gaussian(R) 98 system (copyright 1998, Gaussian, Inc.),
 the Gaussian(R) 94 system (copyright 1995, Gaussian, Inc.),
 the Gaussian 92(TM) system (copyright 1992, Gaussian, Inc.),
 the Gaussian 90(TM) system (copyright 1990, Gaussian, Inc.),
 the Gaussian 88(TM) system (copyright 1988, Gaussian, Inc.),
 the Gaussian 86(TM) system (copyright 1986, Carnegie Mellon
 University), and the Gaussian 82(TM) system (copyright 1983,
 Carnegie Mellon University). Gaussian is a federally registered
 trademark of Gaussian, Inc.
  
 This software contains proprietary and confidential information,
 including trade secrets, belonging to Gaussian, Inc.
  
 This software is provided under written license and may be
 used, copied, transmitted, or stored only in accord with that
 written license.
  
 The following legend is applicable only to US Government
 contracts under FAR:
  
                    RESTRICTED RIGHTS LEGEND
  
 Use, reproduction and disclosure by the US Government is
 subject to restrictions as set forth in subparagraphs (a)
 and (c) of the Commercial Computer Software - Restricted
 Rights clause in FAR 52.227-19.
  
 Gaussian, Inc.
 340 Quinnipiac St., Bldg. 40, Wallingford CT 06492
  
  
 ---------------------------------------------------------------
 Warning -- This program may not be used in any manner that
 competes with the business of Gaussian, Inc. or will provide
 assistance to any competitor of Gaussian, Inc.  The licensee
 of this program is prohibited from giving any competitor of
 Gaussian, Inc. access to this program.  By using this program,
 the user acknowledges that Gaussian, Inc. is engaged in the
 business of creating and licensing software in the field of
 computational chemistry and represents and warrants to the
 licensee that it is not a competitor of Gaussian, Inc. and that
 it will not use this program in any manner prohibited above.
 ---------------------------------------------------------------
  

 Cite this work as:
 Gaussian 16, Revision A.03,
 M. J. Frisch, G. W. Trucks, H. B. Schlegel, G. E. Scuseria, 
 M. A. Robb, J. R. Cheeseman, G. Scalmani, V. Barone, 
 G. A. Petersson, H. Nakatsuji, X. Li, M. Caricato, A. V. Marenich, 
 J. Bloino, B. G. Janesko, R. Gomperts, B. Mennucci, H. P. Hratchian, 
 J. V. Ortiz, A. F. Izmaylov, J. L. Sonnenberg, D. Williams-Young, 
 F. Ding, F. Lipparini, F. Egidi, J. Goings, B. Peng, A. Petrone, 
 T. Henderson, D. Ranasinghe, V. G. Zakrzewski, J. Gao, N. Rega, 
 G. Zheng, W. Liang, M. Hada, M. Ehara, K. Toyota, R. Fukuda, 
 J. Hasegawa, M. Ishida, T. Nakajima, Y. Honda, O. Kitao, H. Nakai, 
 T. Vreven, K. Throssell, J. A. Montgomery, Jr., J. E. Peralta, 
 F. Ogliaro, M. J. Bearpark, J. J. Heyd, E. N. Brothers, K. N. Kudin, 
 V. N. Staroverov, T. A. Keith, R. Kobayashi, J. Normand, 
 K. Raghavachari, A. P. Rendell, J. C. Burant, S. S. Iyengar, 
 J. Tomasi, M. Cossi, J. M. Millam, M. Klene, C. Adamo, R. Cammi, 
 J. W. Ochterski, R. L. Martin, K. Morokuma, O. Farkas, 
 J. B. Foresman, and D. J. Fox, Gaussian, Inc., Wallingford CT, 2016.
 
 ******************************************
 Gaussian 16:  ES64L-G16RevA.03 25-Dec-2016
                 5-Jun-2019 
 ******************************************
 %nprocshared=2
 Will use up to    2 processors via shared memory.
 %mem=2GB
 ----------------
 # 6-31g(d) wb97x
 ----------------
 1/38=1,172=1/1;
 2/12=2,17=6,18=5,40=1/2;
 3/5=1,6=6,7=1,11=2,25=1,30=1,74=-57/1,2,3;
 4//1;
 5/5=2,38=5/2;
 6/7=2,8=2,9=2,10=2,28=1/1;
 99/5=1,9=1/99;
 ------------------------
 tmpdir/M2_conf_1_167.gjf
 ------------------------
 Symbolic Z-matrix:
 Charge =  0 Multiplicity = 1
 N                     0.        0.        0. 
 C                     1.3401    0.        0. 
 C                     2.01299   0.        1.32347 
 O                    -0.52897   0.00126  -1.03192 
 O                     1.97739   0.00898  -1.04977 
 O                     1.41952   0.40161   2.3233 
 H                     2.95808  -0.33918   1.44291 
 
                          Input orientation:                          
 ---------------------------------------------------------------------
 Center     Atomic      Atomic             Coordinates (Angstroms)
 Number     Number       Type             X           Y           Z
 ---------------------------------------------------------------------
      1          7           0        0.000000    0.000000    0.000000
      2          6           0        1.340100    0.000000    0.000000
      3          6           0        2.012990    0.000000    1.323470
      4          8           0       -0.528970    0.001260   -1.031920
      5          8           0        1.977390    0.008980   -1.049770
      6          8           0        1.419520    0.401610    2.323300
      7          1           0        2.958080   -0.339180    1.442910
 ---------------------------------------------------------------------
                    Distance matrix (angstroms):
                    1          2          3          4          5
     1  N    0.000000
     2  C    1.340100   0.000000
     3  C    2.409087   1.484707   0.000000
     4  O    1.159599   2.135014   3.465462   0.000000
     5  O    2.238787   1.228103   2.373524   2.506435   0.000000
     6  O    2.752099   2.359093   1.230105   3.900563   3.441363
     7  H    3.308666   2.194286   1.011189   4.289546   2.701189
                    6          7
     6  O    0.000000
     7  H    1.921204   0.000000
 Stoichiometry    C2HNO3
 Framework group  C1[X(C2HNO3)]
 Deg. of freedom    15
 Full point group                 C1      NOp   1
 Largest Abelian subgroup         C1      NOp   1
 Largest concise Abelian subgroup C1      NOp   1
                         Standard orientation:                         
 ---------------------------------------------------------------------
 Center     Atomic      Atomic             Coordinates (Angstroms)
 Number     Number       Type             X           Y           Z
 ---------------------------------------------------------------------
      1          7           0        0.753694   -0.768238    0.079684
      2          6           0        0.077445    0.387670    0.030373
      3          6           0       -1.401220    0.307272    0.137324
      4          8           0        1.908712   -0.709374   -0.004801
      5          8           0        0.658781    1.460776   -0.106478
      6          8           0       -1.989388   -0.736725   -0.140680
      7          1           0       -1.958055    1.090603    0.451700
 ---------------------------------------------------------------------
 Rotational constants (GHZ):           7.8688444           3.0630215           2.2245649
 Standard basis: 6-31G(d) (6D, 7F)
 There are    92 symmetry adapted cartesian basis functions of A   symmetry.
 There are    92 symmetry adapted basis functions of A   symmetry.
    92 basis functions,   172 primitive gaussians,    92 cartesian basis functions
    22 alpha electrons       22 beta electrons
       nuclear repulsion energy       212.7287354573 Hartrees.
 NAtoms=    7 NActive=    7 NUniq=    7 SFac= 1.00D+00 NAtFMM=   60 NAOKFM=F Big=F
 Integral buffers will be    131072 words long.
 Raffenetti 2 integral format.
 Two-electron integral symmetry is turned on.
 One-electron integrals computed using PRISM.
 NBasis=    92 RedAO= T EigKep=  2.29D-03  NBF=    92
 NBsUse=    92 1.00D-06 EigRej= -1.00D+00 NBFU=    92
 ExpMin= 1.61D-01 ExpMax= 5.48D+03 ExpMxC= 8.25D+02 IAcc=3 IRadAn=         5 AccDes= 0.00D+00
 Harris functional with IExCor= 4538 and IRadAn=       5 diagonalized for initial guess.
 HarFok:  IExCor= 4538 AccDes= 0.00D+00 IRadAn=         5 IDoV= 1 UseB2=F ITyADJ=14
 ICtDFT=  3500011 ScaDFX=  1.000000  1.000000  1.000000  1.000000
 FoFCou: FMM=F IPFlag=           0 FMFlag=      100000 FMFlg1=           0
         NFxFlg=           0 DoJE=T BraDBF=F KetDBF=T FulRan=T
         wScrn=  0.000000 ICntrl=       500 IOpCl=  0 I1Cent=   200000004 NGrid=           0
         NMat0=    1 NMatS0=      1 NMatT0=    0 NMatD0=    1 NMtDS0=    0 NMtDT0=    0
 Petite list used in FoFCou.
 Keep R1 ints in memory in canonical form, NReq=20139963.
 Requested convergence on RMS density matrix=1.00D-08 within 128 cycles.
 Requested convergence on MAX density matrix=1.00D-06.
 Requested convergence on             energy=1.00D-06.
 No special actions if energy rises.
 Integral accuracy reduced to 1.0D-05 until final iterations.
 Rare condition: small coef for last iteration:  0.000D+00
 Rare condition: small coef for last iteration:  0.000D+00
 Problem detected with inexpensive integrals.
 Switching to full accuracy and repeating last cycle.
 Rare condition: small coef for last iteration:  0.000D+00
 Rare condition: small coef for last iteration:  0.000D+00
 Rare condition: small coef for last iteration:  0.000D+00
 SCF Done:  E(RwB97X) =  -356.908385375     A.U. after   31 cycles
            NFock= 31  Conv=0.64D-08     -V/T= 2.0072

 **********************************************************************

            Population analysis using the SCF density.

 **********************************************************************

 Orbital symmetries:
       Occupied  (A) (A) (A) (A) (A) (A) (A) (A) (A) (A) (A) (A)
                 (A) (A) (A) (A) (A) (A) (A) (A) (A) (A)
       Virtual   (A) (A) (A) (A) (A) (A) (A) (A) (A) (A) (A) (A)
                 (A) (A) (A) (A) (A) (A) (A) (A) (A) (A) (A) (A)
                 (A) (A) (A) (A) (A) (A) (A) (A) (A) (A) (A) (A)
                 (A) (A) (A) (A) (A) (A) (A) (A) (A) (A) (A) (A)
                 (A) (A) (A) (A) (A) (A) (A) (A) (A) (A) (A) (A)
                 (A) (A) (A) (A) (A) (A) (A) (A) (A) (A)
 The electronic state is 1-A.
 Alpha  occ. eigenvalues --  -19.37115 -19.26643 -19.23504 -14.58654 -10.42762
 Alpha  occ. eigenvalues --  -10.40074  -1.40425  -1.21581  -1.19286  -0.98379
 Alpha  occ. eigenvalues --   -0.83269  -0.73405  -0.69513  -0.66950  -0.63138
 Alpha  occ. eigenvalues --   -0.59822  -0.56421  -0.55013  -0.49452  -0.43724
 Alpha  occ. eigenvalues --   -0.39209  -0.33556
 Alpha virt. eigenvalues --   -0.12437  -0.00610   0.14153   0.23162   0.29065
 Alpha virt. eigenvalues --    0.33903   0.38846   0.46234   0.47748   0.59016
 Alpha virt. eigenvalues --    0.62937   0.67210   0.69779   0.70858   0.74918
 Alpha virt. eigenvalues --    0.76122   0.78960   0.80038   0.85965   0.91416
 Alpha virt. eigenvalues --    0.94196   0.97535   1.00181   1.03283   1.05880
 Alpha virt. eigenvalues --    1.07468   1.11107   1.13286   1.17825   1.19659
 Alpha virt. eigenvalues --    1.29194   1.36035   1.44635   1.53826   1.56811
 Alpha virt. eigenvalues --    1.60117   1.61855   1.69203   1.74217   1.80484
 Alpha virt. eigenvalues --    1.81961   1.85542   1.89605   1.94379   1.96164
 Alpha virt. eigenvalues --    1.99722   2.07012   2.08730   2.15099   2.19878
 Alpha virt. eigenvalues --    2.31329   2.41840   2.46123   2.51327   2.54819
 Alpha virt. eigenvalues --    2.66458   2.69807   2.79221   2.82952   2.93590
 Alpha virt. eigenvalues --    2.97813   3.03960   3.15017   3.28388   3.69964
 Alpha virt. eigenvalues --    3.85608   4.01174   4.09363   4.30664   4.53547
          Condensed to atoms (all electrons):
               1          2          3          4          5          6
     1  N    6.783053   0.144236  -0.094064   0.204190  -0.086380   0.022539
     2  C    0.144236   4.825090   0.260085  -0.066362   0.545303  -0.087694
     3  C   -0.094064   0.260085   4.752697   0.004001  -0.046842   0.529901
     4  O    0.204190  -0.066362   0.004001   7.974998  -0.026876   0.000325
     5  O   -0.086380   0.545303  -0.046842  -0.026876   8.059138   0.001866
     6  O    0.022539  -0.087694   0.529901   0.000325   0.001866   7.935738
     7  H    0.004689  -0.087837   0.393248   0.000065   0.003301  -0.046756
               7
     1  N    0.004689
     2  C   -0.087837
     3  C    0.393248
     4  O    0.000065
     5  O    0.003301
     6  O   -0.046756
     7  H    0.527406
 Mulliken charges:
               1
     1  N    0.021737
     2  C    0.467178
     3  C    0.200974
     4  O   -0.090342
     5  O   -0.449510
     6  O   -0.355920
     7  H    0.205883
 Sum of Mulliken charges =  -0.00000
 Mulliken charges with hydrogens summed into heavy atoms:
               1
     1  N    0.021737
     2  C    0.467178
     3  C    0.406858
     4  O   -0.090342
     5  O   -0.449510
     6  O   -0.355920
 Electronic spatial extent (au):  <R**2>=            490.9622
 Charge=             -0.0000 electrons
 Dipole moment (field-independent basis, Debye):
    X=             -0.5836    Y=             -0.2885    Z=              0.8732  Tot=              1.0892
 Quadrupole moment (field-independent basis, Debye-Ang):
   XX=            -34.2130   YY=            -34.3769   ZZ=            -30.9987
   XY=             -6.1128   XZ=             -0.9925   YZ=              0.1439
 Traceless Quadrupole moment (field-independent basis, Debye-Ang):
   XX=             -1.0168   YY=             -1.1807   ZZ=              2.1975
   XY=             -6.1128   XZ=             -0.9925   YZ=              0.1439
 Octapole moment (field-independent basis, Debye-Ang**2):
  XXX=              7.1615  YYY=             -8.1876  ZZZ=             -0.5377  XYY=             -0.2477
  XXY=              7.3578  XXZ=              2.0470  XZZ=             -0.0025  YZZ=             -0.0611
  YYZ=              1.1997  XYZ=             -0.1226
 Hexadecapole moment (field-independent basis, Debye-Ang**3):
 XXXX=           -384.0081 YYYY=           -161.3071 ZZZZ=            -26.9826 XXXY=            -15.7732
 XXXZ=             -4.0638 YYYX=             -9.5153 YYYZ=              0.2483 ZZZX=              0.3136
 ZZZY=              0.1363 XXYY=            -87.1534 XXZZ=            -64.3992 YYZZ=            -30.6336
 XXYZ=              0.3523 YYXZ=             -0.4548 ZZXY=              0.0585
 N-N= 2.127287354573D+02 E-N=-1.262679649679D+03  KE= 3.543396826156D+02
 1\1\GINC-NODE91\SP\RwB97X\6-31G(d)\C2H1N1O3\YANZ\05-Jun-2019\0\\# 6-31
 g(d) wb97x\\tmpdir/M2_conf_1_167.gjf\\0,1\N,0,0.,0.,0.\C,0,1.3401,0.,0
 .\C,0,2.01299,0.,1.32347\O,0,-0.52897,0.00126,-1.03192\O,0,1.97739,0.0
 0898,-1.04977\O,0,1.41952,0.40161,2.3233\H,0,2.95808,-0.33918,1.44291\
 \Version=ES64L-G16RevA.03\State=1-A\HF=-356.9083854\RMSD=6.397e-09\Dip
 ole=0.0053113,-0.3168326,0.2884666\Quadrupole=3.0787186,1.4742562,-4.5
 529748,-0.2907986,2.2974627,-1.2892529\PG=C01 [X(C2H1N1O3)]\\@


 GOOD SENSE ABOUT TRIVIALITIES IS BETTER THAN NONSENSE
 ABOUT THINGS THAT MATTER

                                       -- MAX BEERBOHM
 Job cpu time:       0 days  0 hours  0 minutes 44.4 seconds.
 Elapsed time:       0 days  0 hours  0 minutes 22.5 seconds.
 File lengths (MBytes):  RWF=     10 Int=      0 D2E=      0 Chk=      2 Scr=      1
 Normal termination of Gaussian 16 at Wed Jun  5 17:03:13 2019.
