 Entering Gaussian System, Link 0=g16
 Initial command:
 /share/apps/gaussian/g16/l1.exe "/tmp/55477.mgr/Gau-327358.inp" -scrdir="/tmp/55477.mgr/"
 Entering Link 1 = /share/apps/gaussian/g16/l1.exe PID=    327359.
  
 Copyright (c) 1988,1990,1992,1993,1995,1998,2003,2009,2016,
            Gaussian, Inc.  All Rights Reserved.
  
 This is part of the Gaussian(R) 16 program.  It is based on
 the Gaussian(R) 09 system (copyright 2009, Gaussian, Inc.),
 the Gaussian(R) 03 system (copyright 2003, Gaussian, Inc.),
 the Gaussian(R) 98 system (copyright 1998, Gaussian, Inc.),
 the Gaussian(R) 94 system (copyright 1995, Gaussian, Inc.),
 the Gaussian 92(TM) system (copyright 1992, Gaussian, Inc.),
 the Gaussian 90(TM) system (copyright 1990, Gaussian, Inc.),
 the Gaussian 88(TM) system (copyright 1988, Gaussian, Inc.),
 the Gaussian 86(TM) system (copyright 1986, Carnegie Mellon
 University), and the Gaussian 82(TM) system (copyright 1983,
 Carnegie Mellon University). Gaussian is a federally registered
 trademark of Gaussian, Inc.
  
 This software contains proprietary and confidential information,
 including trade secrets, belonging to Gaussian, Inc.
  
 This software is provided under written license and may be
 used, copied, transmitted, or stored only in accord with that
 written license.
  
 The following legend is applicable only to US Government
 contracts under FAR:
  
                    RESTRICTED RIGHTS LEGEND
  
 Use, reproduction and disclosure by the US Government is
 subject to restrictions as set forth in subparagraphs (a)
 and (c) of the Commercial Computer Software - Restricted
 Rights clause in FAR 52.227-19.
  
 Gaussian, Inc.
 340 Quinnipiac St., Bldg. 40, Wallingford CT 06492
  
  
 ---------------------------------------------------------------
 Warning -- This program may not be used in any manner that
 competes with the business of Gaussian, Inc. or will provide
 assistance to any competitor of Gaussian, Inc.  The licensee
 of this program is prohibited from giving any competitor of
 Gaussian, Inc. access to this program.  By using this program,
 the user acknowledges that Gaussian, Inc. is engaged in the
 business of creating and licensing software in the field of
 computational chemistry and represents and warrants to the
 licensee that it is not a competitor of Gaussian, Inc. and that
 it will not use this program in any manner prohibited above.
 ---------------------------------------------------------------
  

 Cite this work as:
 Gaussian 16, Revision A.03,
 M. J. Frisch, G. W. Trucks, H. B. Schlegel, G. E. Scuseria, 
 M. A. Robb, J. R. Cheeseman, G. Scalmani, V. Barone, 
 G. A. Petersson, H. Nakatsuji, X. Li, M. Caricato, A. V. Marenich, 
 J. Bloino, B. G. Janesko, R. Gomperts, B. Mennucci, H. P. Hratchian, 
 J. V. Ortiz, A. F. Izmaylov, J. L. Sonnenberg, D. Williams-Young, 
 F. Ding, F. Lipparini, F. Egidi, J. Goings, B. Peng, A. Petrone, 
 T. Henderson, D. Ranasinghe, V. G. Zakrzewski, J. Gao, N. Rega, 
 G. Zheng, W. Liang, M. Hada, M. Ehara, K. Toyota, R. Fukuda, 
 J. Hasegawa, M. Ishida, T. Nakajima, Y. Honda, O. Kitao, H. Nakai, 
 T. Vreven, K. Throssell, J. A. Montgomery, Jr., J. E. Peralta, 
 F. Ogliaro, M. J. Bearpark, J. J. Heyd, E. N. Brothers, K. N. Kudin, 
 V. N. Staroverov, T. A. Keith, R. Kobayashi, J. Normand, 
 K. Raghavachari, A. P. Rendell, J. C. Burant, S. S. Iyengar, 
 J. Tomasi, M. Cossi, J. M. Millam, M. Klene, C. Adamo, R. Cammi, 
 J. W. Ochterski, R. L. Martin, K. Morokuma, O. Farkas, 
 J. B. Foresman, and D. J. Fox, Gaussian, Inc., Wallingford CT, 2016.
 
 ******************************************
 Gaussian 16:  ES64L-G16RevA.03 25-Dec-2016
                 5-Jun-2019 
 ******************************************
 %nprocshared=2
 Will use up to    2 processors via shared memory.
 %mem=2GB
 ----------------
 # 6-31g(d) wb97x
 ----------------
 1/38=1,172=1/1;
 2/12=2,17=6,18=5,40=1/2;
 3/5=1,6=6,7=1,11=2,25=1,30=1,74=-57/1,2,3;
 4//1;
 5/5=2,38=5/2;
 6/7=2,8=2,9=2,10=2,28=1/1;
 99/5=1,9=1/99;
 ------------------------
 tmpdir/M2_conf_2_171.gjf
 ------------------------
 Symbolic Z-matrix:
 Charge =  0 Multiplicity = 1
 C                     0.        0.        0. 
 C                     1.4847    0.        0. 
 C                     2.20104   0.        1.19738 
 H                    -0.46558  -0.35764   0.87463 
 O                    -0.66004   0.40033  -0.95515 
 H                     2.01951  -0.01558  -0.85806 
 H                     1.68428   0.00554   2.15152 
 H                     3.20425  -0.00691   1.16096 
 
                          Input orientation:                          
 ---------------------------------------------------------------------
 Center     Atomic      Atomic             Coordinates (Angstroms)
 Number     Number       Type             X           Y           Z
 ---------------------------------------------------------------------
      1          6           0        0.000000    0.000000    0.000000
      2          6           0        1.484700    0.000000    0.000000
      3          6           0        2.201040    0.000000    1.197380
      4          1           0       -0.465580   -0.357640    0.874630
      5          8           0       -0.660040    0.400330   -0.955150
      6          1           0        2.019510   -0.015580   -0.858060
      7          1           0        1.684280    0.005540    2.151520
      8          1           0        3.204250   -0.006910    1.160960
 ---------------------------------------------------------------------
                    Distance matrix (angstroms):
                    1          2          3          4          5
     1  C    0.000000
     2  C    1.484700   0.000000
     3  C    2.505653   1.395300   0.000000
     4  H    1.053399   2.167135   2.709785   0.000000
     5  O    1.228100   2.381698   3.602697   1.990082   0.000000
     6  H    2.194295   1.011203   2.063499   3.048753   2.713374
     7  H    2.732374   2.160764   1.085106   2.526707   3.911917
     8  H    3.408092   2.074784   1.003895   3.697654   4.424534
                    6          7          8
     6  H    0.000000
     7  H    3.028266   0.000000
     8  H    2.340967   1.814297   0.000000
 Stoichiometry    C3H4O
 Framework group  C1[X(C3H4O)]
 Deg. of freedom    18
 Full point group                 C1      NOp   1
 Largest Abelian subgroup         C1      NOp   1
 Largest concise Abelian subgroup C1      NOp   1
                         Standard orientation:                         
 ---------------------------------------------------------------------
 Center     Atomic      Atomic             Coordinates (Angstroms)
 Number     Number       Type             X           Y           Z
 ---------------------------------------------------------------------
      1          6           0       -0.693168    0.353526    0.120780
      2          6           0        0.551218   -0.455864    0.093893
      3          6           0        1.795496    0.149121   -0.086737
      4          1           0       -0.580378    1.372995    0.360804
      5          8           0       -1.796587   -0.123844   -0.129846
      6          1           0        0.539470   -1.459132    0.219777
      7          1           0        1.874956    1.223510   -0.216462
      8          1           0        2.617373   -0.427319   -0.092965
 ---------------------------------------------------------------------
 Rotational constants (GHZ):          45.5106280           4.5392912           4.1871365
 Standard basis: 6-31G(d) (6D, 7F)
 There are    68 symmetry adapted cartesian basis functions of A   symmetry.
 There are    68 symmetry adapted basis functions of A   symmetry.
    68 basis functions,   128 primitive gaussians,    68 cartesian basis functions
    15 alpha electrons       15 beta electrons
       nuclear repulsion energy       102.3890362676 Hartrees.
 NAtoms=    8 NActive=    8 NUniq=    8 SFac= 1.00D+00 NAtFMM=   60 NAOKFM=F Big=F
 Integral buffers will be    131072 words long.
 Raffenetti 2 integral format.
 Two-electron integral symmetry is turned on.
 One-electron integrals computed using PRISM.
 NBasis=    68 RedAO= T EigKep=  4.56D-03  NBF=    68
 NBsUse=    68 1.00D-06 EigRej= -1.00D+00 NBFU=    68
 ExpMin= 1.61D-01 ExpMax= 5.48D+03 ExpMxC= 8.25D+02 IAcc=3 IRadAn=         5 AccDes= 0.00D+00
 Harris functional with IExCor= 4538 and IRadAn=       5 diagonalized for initial guess.
 HarFok:  IExCor= 4538 AccDes= 0.00D+00 IRadAn=         5 IDoV= 1 UseB2=F ITyADJ=14
 ICtDFT=  3500011 ScaDFX=  1.000000  1.000000  1.000000  1.000000
 FoFCou: FMM=F IPFlag=           0 FMFlag=      100000 FMFlg1=           0
         NFxFlg=           0 DoJE=T BraDBF=F KetDBF=T FulRan=T
         wScrn=  0.000000 ICntrl=       500 IOpCl=  0 I1Cent=   200000004 NGrid=           0
         NMat0=    1 NMatS0=      1 NMatT0=    0 NMatD0=    1 NMtDS0=    0 NMtDT0=    0
 Petite list used in FoFCou.
 Keep R1 ints in memory in canonical form, NReq=7290824.
 Requested convergence on RMS density matrix=1.00D-08 within 128 cycles.
 Requested convergence on MAX density matrix=1.00D-06.
 Requested convergence on             energy=1.00D-06.
 No special actions if energy rises.
 Integral accuracy reduced to 1.0D-05 until final iterations.
 Initial convergence to 1.0D-05 achieved.  Increase integral accuracy.
 SCF Done:  E(RwB97X) =  -191.835284729     A.U. after   16 cycles
            NFock= 16  Conv=0.84D-08     -V/T= 2.0086

 **********************************************************************

            Population analysis using the SCF density.

 **********************************************************************

 Orbital symmetries:
       Occupied  (A) (A) (A) (A) (A) (A) (A) (A) (A) (A) (A) (A)
                 (A) (A) (A)
       Virtual   (A) (A) (A) (A) (A) (A) (A) (A) (A) (A) (A) (A)
                 (A) (A) (A) (A) (A) (A) (A) (A) (A) (A) (A) (A)
                 (A) (A) (A) (A) (A) (A) (A) (A) (A) (A) (A) (A)
                 (A) (A) (A) (A) (A) (A) (A) (A) (A) (A) (A) (A)
                 (A) (A) (A) (A) (A)
 The electronic state is 1-A.
 Alpha  occ. eigenvalues --  -19.21536 -10.36195 -10.30019 -10.29218  -1.16158
 Alpha  occ. eigenvalues --   -0.92505  -0.77954  -0.70799  -0.60168  -0.58020
 Alpha  occ. eigenvalues --   -0.52597  -0.51631  -0.49333  -0.37783  -0.36013
 Alpha virt. eigenvalues --    0.02090   0.13990   0.21383   0.23588   0.25873
 Alpha virt. eigenvalues --    0.30250   0.35702   0.39558   0.44135   0.61617
 Alpha virt. eigenvalues --    0.63622   0.65105   0.68944   0.70887   0.74198
 Alpha virt. eigenvalues --    0.75913   0.78138   0.92193   0.96076   0.98474
 Alpha virt. eigenvalues --    1.02980   1.04405   1.07132   1.09612   1.14877
 Alpha virt. eigenvalues --    1.16765   1.23740   1.34824   1.49778   1.52719
 Alpha virt. eigenvalues --    1.63464   1.65880   1.75560   1.85221   1.92032
 Alpha virt. eigenvalues --    1.94388   2.05978   2.09303   2.13395   2.23315
 Alpha virt. eigenvalues --    2.30750   2.40488   2.45251   2.52885   2.66567
 Alpha virt. eigenvalues --    2.70758   2.92440   3.02476   3.10274   3.92666
 Alpha virt. eigenvalues --    4.17040   4.28105   4.51413
          Condensed to atoms (all electrons):
               1          2          3          4          5          6
     1  C    4.564530   0.354368  -0.016968   0.372938   0.536189  -0.025976
     2  C    0.354368   5.127476   0.550305  -0.112133  -0.067121   0.385352
     3  C   -0.016968   0.550305   5.069402   0.009630   0.002999  -0.040862
     4  H    0.372938  -0.112133   0.009630   0.627725  -0.048899   0.003762
     5  O    0.536189  -0.067121   0.002999  -0.048899   7.978663  -0.000317
     6  H   -0.025976   0.385352  -0.040862   0.003762  -0.000317   0.489294
     7  H   -0.003997  -0.039849   0.382417   0.004512   0.000065   0.003713
     8  H    0.002265  -0.024220   0.387128  -0.000112  -0.000065  -0.004283
               7          8
     1  C   -0.003997   0.002265
     2  C   -0.039849  -0.024220
     3  C    0.382417   0.387128
     4  H    0.004512  -0.000112
     5  O    0.000065  -0.000065
     6  H    0.003713  -0.004283
     7  H    0.502679  -0.029639
     8  H   -0.029639   0.477832
 Mulliken charges:
               1
     1  C    0.216652
     2  C   -0.174177
     3  C   -0.344050
     4  H    0.142577
     5  O   -0.401513
     6  H    0.189318
     7  H    0.180100
     8  H    0.191093
 Sum of Mulliken charges =  -0.00000
 Mulliken charges with hydrogens summed into heavy atoms:
               1
     1  C    0.359229
     2  C    0.015141
     3  C    0.027143
     5  O   -0.401513
 Electronic spatial extent (au):  <R**2>=            301.0626
 Charge=             -0.0000 electrons
 Dipole moment (field-independent basis, Debye):
    X=              3.0878    Y=              0.7183    Z=              0.4711  Tot=              3.2051
 Quadrupole moment (field-independent basis, Debye-Ang):
   XX=            -26.4036   YY=            -21.0345   ZZ=            -24.3242
   XY=             -1.0167   XZ=             -0.9741   YZ=             -0.3114
 Traceless Quadrupole moment (field-independent basis, Debye-Ang):
   XX=             -2.4828   YY=              2.8862   ZZ=             -0.4034
   XY=             -1.0167   XZ=             -0.9741   YZ=             -0.3114
 Octapole moment (field-independent basis, Debye-Ang**2):
  XXX=             12.3419  YYY=             -0.1969  ZZZ=             -0.2990  XYY=             -0.1787
  XXY=              0.2639  XXZ=              0.2576  XZZ=             -4.2793  YZZ=              0.0943
  YYZ=              0.3576  XYZ=             -0.3878
 Hexadecapole moment (field-independent basis, Debye-Ang**3):
 XXXX=           -296.4318 YYYY=            -50.2525 ZZZZ=            -25.3782 XXXY=             -3.2532
 XXXZ=             -2.4892 YYYX=              0.0343 YYYZ=             -0.6723 ZZZX=              0.7533
 ZZZY=             -0.0791 XXYY=            -55.3415 XXZZ=            -55.1787 YYZZ=            -13.7290
 XXYZ=             -0.6947 YYXZ=             -0.3111 ZZXY=              0.1458
 N-N= 1.023890362676D+02 E-N=-6.520794130893D+02  KE= 1.902050208738D+02
 1\1\GINC-NODE91\SP\RwB97X\6-31G(d)\C3H4O1\YANZ\05-Jun-2019\0\\# 6-31g(
 d) wb97x\\tmpdir/M2_conf_2_171.gjf\\0,1\C,0,0.,0.,0.\C,0,1.4847,0.,0.\
 C,0,2.20104,0.,1.19738\H,0,-0.46558,-0.35764,0.87463\O,0,-0.66004,0.40
 033,-0.95515\H,0,2.01951,-0.01558,-0.85806\H,0,1.68428,0.00554,2.15152
 \H,0,3.20425,-0.00691,1.16096\\Version=ES64L-G16RevA.03\State=1-A\HF=-
 191.8352847\RMSD=8.383e-09\Dipole=0.8607815,-0.3249084,0.8622867\Quadr
 upole=0.0490778,-0.4797431,0.4306653,0.7667315,-2.0325862,0.5216412\PG
 =C01 [X(C3H4O1)]\\@


 THERE IS NO SCIENCE WITHOUT FANCY, NOR ART WITHOUT FACTS.
     -- VLADIMIR NABAKOV
 Job cpu time:       0 days  0 hours  0 minutes 19.1 seconds.
 Elapsed time:       0 days  0 hours  0 minutes  9.7 seconds.
 File lengths (MBytes):  RWF=      6 Int=      0 D2E=      0 Chk=      1 Scr=      1
 Normal termination of Gaussian 16 at Wed Jun  5 17:04:57 2019.
