 Entering Gaussian System, Link 0=g16
 Initial command:
 /share/apps/gaussian/g16/l1.exe "/tmp/55477.mgr/Gau-323814.inp" -scrdir="/tmp/55477.mgr/"
 Entering Link 1 = /share/apps/gaussian/g16/l1.exe PID=    323815.
  
 Copyright (c) 1988,1990,1992,1993,1995,1998,2003,2009,2016,
            Gaussian, Inc.  All Rights Reserved.
  
 This is part of the Gaussian(R) 16 program.  It is based on
 the Gaussian(R) 09 system (copyright 2009, Gaussian, Inc.),
 the Gaussian(R) 03 system (copyright 2003, Gaussian, Inc.),
 the Gaussian(R) 98 system (copyright 1998, Gaussian, Inc.),
 the Gaussian(R) 94 system (copyright 1995, Gaussian, Inc.),
 the Gaussian 92(TM) system (copyright 1992, Gaussian, Inc.),
 the Gaussian 90(TM) system (copyright 1990, Gaussian, Inc.),
 the Gaussian 88(TM) system (copyright 1988, Gaussian, Inc.),
 the Gaussian 86(TM) system (copyright 1986, Carnegie Mellon
 University), and the Gaussian 82(TM) system (copyright 1983,
 Carnegie Mellon University). Gaussian is a federally registered
 trademark of Gaussian, Inc.
  
 This software contains proprietary and confidential information,
 including trade secrets, belonging to Gaussian, Inc.
  
 This software is provided under written license and may be
 used, copied, transmitted, or stored only in accord with that
 written license.
  
 The following legend is applicable only to US Government
 contracts under FAR:
  
                    RESTRICTED RIGHTS LEGEND
  
 Use, reproduction and disclosure by the US Government is
 subject to restrictions as set forth in subparagraphs (a)
 and (c) of the Commercial Computer Software - Restricted
 Rights clause in FAR 52.227-19.
  
 Gaussian, Inc.
 340 Quinnipiac St., Bldg. 40, Wallingford CT 06492
  
  
 ---------------------------------------------------------------
 Warning -- This program may not be used in any manner that
 competes with the business of Gaussian, Inc. or will provide
 assistance to any competitor of Gaussian, Inc.  The licensee
 of this program is prohibited from giving any competitor of
 Gaussian, Inc. access to this program.  By using this program,
 the user acknowledges that Gaussian, Inc. is engaged in the
 business of creating and licensing software in the field of
 computational chemistry and represents and warrants to the
 licensee that it is not a competitor of Gaussian, Inc. and that
 it will not use this program in any manner prohibited above.
 ---------------------------------------------------------------
  

 Cite this work as:
 Gaussian 16, Revision A.03,
 M. J. Frisch, G. W. Trucks, H. B. Schlegel, G. E. Scuseria, 
 M. A. Robb, J. R. Cheeseman, G. Scalmani, V. Barone, 
 G. A. Petersson, H. Nakatsuji, X. Li, M. Caricato, A. V. Marenich, 
 J. Bloino, B. G. Janesko, R. Gomperts, B. Mennucci, H. P. Hratchian, 
 J. V. Ortiz, A. F. Izmaylov, J. L. Sonnenberg, D. Williams-Young, 
 F. Ding, F. Lipparini, F. Egidi, J. Goings, B. Peng, A. Petrone, 
 T. Henderson, D. Ranasinghe, V. G. Zakrzewski, J. Gao, N. Rega, 
 G. Zheng, W. Liang, M. Hada, M. Ehara, K. Toyota, R. Fukuda, 
 J. Hasegawa, M. Ishida, T. Nakajima, Y. Honda, O. Kitao, H. Nakai, 
 T. Vreven, K. Throssell, J. A. Montgomery, Jr., J. E. Peralta, 
 F. Ogliaro, M. J. Bearpark, J. J. Heyd, E. N. Brothers, K. N. Kudin, 
 V. N. Staroverov, T. A. Keith, R. Kobayashi, J. Normand, 
 K. Raghavachari, A. P. Rendell, J. C. Burant, S. S. Iyengar, 
 J. Tomasi, M. Cossi, J. M. Millam, M. Klene, C. Adamo, R. Cammi, 
 J. W. Ochterski, R. L. Martin, K. Morokuma, O. Farkas, 
 J. B. Foresman, and D. J. Fox, Gaussian, Inc., Wallingford CT, 2016.
 
 ******************************************
 Gaussian 16:  ES64L-G16RevA.03 25-Dec-2016
                 5-Jun-2019 
 ******************************************
 %nprocshared=2
 Will use up to    2 processors via shared memory.
 %mem=2GB
 ----------------
 # 6-31g(d) wb97x
 ----------------
 1/38=1,172=1/1;
 2/12=2,17=6,18=5,40=1/2;
 3/5=1,6=6,7=1,11=2,25=1,30=1,74=-57/1,2,3;
 4//1;
 5/5=2,38=5/2;
 6/7=2,8=2,9=2,10=2,28=1/1;
 99/5=1,9=1/99;
 ------------------------
 tmpdir/M2_conf_1_111.gjf
 ------------------------
 Symbolic Z-matrix:
 Charge =  0 Multiplicity = 1
 C                     0.        0.        0. 
 C                     1.3946    0.        0. 
 C                     2.0764    0.        1.21944 
 H                    -0.59256   0.02528  -0.94027 
 H                    -0.51114   0.0094    0.86909 
 H                     1.94309   0.00032  -0.92745 
 O                     1.4516    0.00785   2.29558 
 H                     3.17609  -0.00549   1.29211 
 
                          Input orientation:                          
 ---------------------------------------------------------------------
 Center     Atomic      Atomic             Coordinates (Angstroms)
 Number     Number       Type             X           Y           Z
 ---------------------------------------------------------------------
      1          6           0        0.000000    0.000000    0.000000
      2          6           0        1.394600    0.000000    0.000000
      3          6           0        2.076400    0.000000    1.219440
      4          1           0       -0.592560    0.025280   -0.940270
      5          1           0       -0.511140    0.009400    0.869090
      6          1           0        1.943090    0.000320   -0.927450
      7          8           0        1.451600    0.007850    2.295580
      8          1           0        3.176090   -0.005490    1.292110
 ---------------------------------------------------------------------
                    Distance matrix (angstroms):
                    1          2          3          4          5
     1  C    0.000000
     2  C    1.394600   0.000000
     3  C    2.408001   1.397099   0.000000
     4  H    1.111699   2.198534   3.433414   0.000000
     5  H    1.008300   2.094577   2.611168   1.811261   0.000000
     6  H    2.153082   1.077499   2.151025   2.535805   3.041526
     7  O    2.716043   2.296301   1.244393   3.827482   2.426360
     8  H    3.428867   2.200746   1.102102   4.380318   3.711446
                    6          7          8
     6  H    0.000000
     7  O    3.260298   0.000000
     8  H    2.539049   1.995243   0.000000
 Stoichiometry    C3H4O
 Framework group  C1[X(C3H4O)]
 Deg. of freedom    18
 Full point group                 C1      NOp   1
 Largest Abelian subgroup         C1      NOp   1
 Largest concise Abelian subgroup C1      NOp   1
                         Standard orientation:                         
 ---------------------------------------------------------------------
 Center     Atomic      Atomic             Coordinates (Angstroms)
 Number     Number       Type             X           Y           Z
 ---------------------------------------------------------------------
      1          6           0       -1.415289   -0.472402   -0.005281
      2          6           0       -0.594185    0.654838   -0.000057
      3          6           0        0.792912    0.487962   -0.000810
      4          1           0       -2.524191   -0.397877    0.020328
      5          1           0       -1.013752   -1.397286   -0.000153
      6          1           0       -1.020903    1.644228    0.004833
      7          8           0        1.294887   -0.650690    0.001782
      8          1           0        1.499120    1.334069   -0.002377
 ---------------------------------------------------------------------
 Rotational constants (GHZ):          21.1170052           6.8862896           5.1929655
 Standard basis: 6-31G(d) (6D, 7F)
 There are    68 symmetry adapted cartesian basis functions of A   symmetry.
 There are    68 symmetry adapted basis functions of A   symmetry.
    68 basis functions,   128 primitive gaussians,    68 cartesian basis functions
    15 alpha electrons       15 beta electrons
       nuclear repulsion energy       105.7029595821 Hartrees.
 NAtoms=    8 NActive=    8 NUniq=    8 SFac= 1.00D+00 NAtFMM=   60 NAOKFM=F Big=F
 Integral buffers will be    131072 words long.
 Raffenetti 2 integral format.
 Two-electron integral symmetry is turned on.
 One-electron integrals computed using PRISM.
 NBasis=    68 RedAO= T EigKep=  2.86D-03  NBF=    68
 NBsUse=    68 1.00D-06 EigRej= -1.00D+00 NBFU=    68
 ExpMin= 1.61D-01 ExpMax= 5.48D+03 ExpMxC= 8.25D+02 IAcc=3 IRadAn=         5 AccDes= 0.00D+00
 Harris functional with IExCor= 4538 and IRadAn=       5 diagonalized for initial guess.
 HarFok:  IExCor= 4538 AccDes= 0.00D+00 IRadAn=         5 IDoV= 1 UseB2=F ITyADJ=14
 ICtDFT=  3500011 ScaDFX=  1.000000  1.000000  1.000000  1.000000
 FoFCou: FMM=F IPFlag=           0 FMFlag=      100000 FMFlg1=           0
         NFxFlg=           0 DoJE=T BraDBF=F KetDBF=T FulRan=T
         wScrn=  0.000000 ICntrl=       500 IOpCl=  0 I1Cent=   200000004 NGrid=           0
         NMat0=    1 NMatS0=      1 NMatT0=    0 NMatD0=    1 NMtDS0=    0 NMtDT0=    0
 Petite list used in FoFCou.
 Keep R1 ints in memory in canonical form, NReq=7290824.
 Requested convergence on RMS density matrix=1.00D-08 within 128 cycles.
 Requested convergence on MAX density matrix=1.00D-06.
 Requested convergence on             energy=1.00D-06.
 No special actions if energy rises.
 Integral accuracy reduced to 1.0D-05 until final iterations.
 Initial convergence to 1.0D-05 achieved.  Increase integral accuracy.
 SCF Done:  E(RwB97X) =  -191.836275901     A.U. after   14 cycles
            NFock= 14  Conv=0.93D-08     -V/T= 2.0089

 **********************************************************************

            Population analysis using the SCF density.

 **********************************************************************

 Orbital symmetries:
       Occupied  (A) (A) (A) (A) (A) (A) (A) (A) (A) (A) (A) (A)
                 (A) (A) (A)
       Virtual   (A) (A) (A) (A) (A) (A) (A) (A) (A) (A) (A) (A)
                 (A) (A) (A) (A) (A) (A) (A) (A) (A) (A) (A) (A)
                 (A) (A) (A) (A) (A) (A) (A) (A) (A) (A) (A) (A)
                 (A) (A) (A) (A) (A) (A) (A) (A) (A) (A) (A) (A)
                 (A) (A) (A) (A) (A)
 The electronic state is 1-A.
 Alpha  occ. eigenvalues --  -19.20356 -10.35385 -10.30431 -10.29104  -1.14919
 Alpha  occ. eigenvalues --   -0.92240  -0.79357  -0.66707  -0.63072  -0.55486
 Alpha  occ. eigenvalues --   -0.52222  -0.50003  -0.49218  -0.37028  -0.35556
 Alpha virt. eigenvalues --    0.00848   0.16989   0.20025   0.23879   0.26323
 Alpha virt. eigenvalues --    0.29958   0.34821   0.41377   0.45837   0.62058
 Alpha virt. eigenvalues --    0.62804   0.68549   0.68791   0.70451   0.74319
 Alpha virt. eigenvalues --    0.75016   0.78615   0.92166   0.95612   0.98094
 Alpha virt. eigenvalues --    0.99053   1.03682   1.08795   1.10941   1.20050
 Alpha virt. eigenvalues --    1.20743   1.24543   1.39085   1.43194   1.51963
 Alpha virt. eigenvalues --    1.64004   1.65135   1.75788   1.87471   1.94284
 Alpha virt. eigenvalues --    1.95115   2.04195   2.06233   2.17984   2.30380
 Alpha virt. eigenvalues --    2.32682   2.39579   2.41515   2.64252   2.65434
 Alpha virt. eigenvalues --    2.71802   2.88559   3.00904   3.18346   3.95668
 Alpha virt. eigenvalues --    4.20723   4.27149   4.50883
          Condensed to atoms (all electrons):
               1          2          3          4          5          6
     1  C    5.022649   0.581214  -0.026384   0.366226   0.385467  -0.035958
     2  C    0.581214   5.207238   0.320168  -0.029484  -0.036095   0.359513
     3  C   -0.026384   0.320168   4.590528   0.003560  -0.008285  -0.025833
     4  H    0.366226  -0.029484   0.003560   0.511390  -0.029144  -0.002822
     5  H    0.385467  -0.036095  -0.008285  -0.029144   0.452452   0.003735
     6  H   -0.035958   0.359513  -0.025833  -0.002822   0.003735   0.523714
     7  O   -0.001696  -0.104390   0.561263   0.000609   0.015994   0.003106
     8  H    0.007095  -0.105602   0.380533  -0.000019   0.000540   0.001501
               7          8
     1  C   -0.001696   0.007095
     2  C   -0.104390  -0.105602
     3  C    0.561263   0.380533
     4  H    0.000609  -0.000019
     5  H    0.015994   0.000540
     6  H    0.003106   0.001501
     7  O    8.003422  -0.056259
     8  H   -0.056259   0.631505
 Mulliken charges:
               1
     1  C   -0.298612
     2  C   -0.192562
     3  C    0.204449
     4  H    0.179685
     5  H    0.215336
     6  H    0.173045
     7  O   -0.422049
     8  H    0.140707
 Sum of Mulliken charges =  -0.00000
 Mulliken charges with hydrogens summed into heavy atoms:
               1
     1  C    0.096409
     2  C   -0.019517
     3  C    0.345157
     7  O   -0.422049
 Electronic spatial extent (au):  <R**2>=            256.2951
 Charge=              0.0000 electrons
 Dipole moment (field-independent basis, Debye):
    X=             -2.1812    Y=              1.7421    Z=              0.0138  Tot=              2.7916
 Quadrupole moment (field-independent basis, Debye-Ang):
   XX=            -23.1232   YY=            -21.8421   ZZ=            -24.3744
   XY=              3.3543   XZ=             -0.0541   YZ=              0.0012
 Traceless Quadrupole moment (field-independent basis, Debye-Ang):
   XX=             -0.0100   YY=              1.2711   ZZ=             -1.2612
   XY=              3.3543   XZ=             -0.0541   YZ=              0.0012
 Octapole moment (field-independent basis, Debye-Ang**2):
  XXX=             -5.5156  YYY=             -0.8019  ZZZ=              0.0320  XYY=             -0.5856
  XXY=              2.0060  XXZ=              0.1289  XZZ=              3.2325  YZZ=             -1.1796
  YYZ=              0.0256  XYZ=              0.0138
 Hexadecapole moment (field-independent basis, Debye-Ang**3):
 XXXX=           -200.7874 YYYY=            -83.7944 ZZZZ=            -22.7436 XXXY=              5.9685
 XXXZ=             -0.3918 YYYX=             -1.4759 YYYZ=             -0.0023 ZZZX=             -0.0338
 ZZZY=             -0.0071 XXYY=            -48.7020 XXZZ=            -40.9693 YYZZ=            -19.2194
 XXYZ=             -0.0436 YYXZ=             -0.0414 ZZXY=             -0.6553
 N-N= 1.057029595821D+02 E-N=-6.588355691991D+02  KE= 1.901451846753D+02
 1\1\GINC-NODE91\SP\RwB97X\6-31G(d)\C3H4O1\YANZ\05-Jun-2019\0\\# 6-31g(
 d) wb97x\\tmpdir/M2_conf_1_111.gjf\\0,1\C,0,0.,0.,0.\C,0,1.3946,0.,0.\
 C,0,2.0764,0.,1.21944\H,0,-0.59256,0.02528,-0.94027\H,0,-0.51114,0.009
 4,0.86909\H,0,1.94309,0.00032,-0.92745\O,0,1.4516,0.00785,2.29558\H,0,
 3.17609,-0.00549,1.29211\\Version=ES64L-G16RevA.03\State=1-A\HF=-191.8
 362759\RMSD=9.282e-09\Dipole=0.0487652,0.0022645,-1.0972102\Quadrupole
 =2.9883304,-0.9376033,-2.0507271,-0.0368024,0.3114903,-0.0372065\PG=C0
 1 [X(C3H4O1)]\\@


 A MUSTACHE HAIR ACROSS A CHIP IS LIKE A REDWOOD
 TREE FALLING THROUGH A HOUSING PROJECT.
 - AN IBM MANAGER IN EAST FISHKILL, NEW YORK
   AS QUOTED IN "FROM SANDS TO CIRCUITS", IBM INNOVATION JANUARY 1985.
 Job cpu time:       0 days  0 hours  0 minutes 17.1 seconds.
 Elapsed time:       0 days  0 hours  0 minutes  8.7 seconds.
 File lengths (MBytes):  RWF=      6 Int=      0 D2E=      0 Chk=      1 Scr=      1
 Normal termination of Gaussian 16 at Wed Jun  5 17:02:08 2019.
