 Entering Gaussian System, Link 0=g16
 Initial command:
 /share/apps/gaussian/g16/l1.exe "/tmp/55477.mgr/Gau-321419.inp" -scrdir="/tmp/55477.mgr/"
 Entering Link 1 = /share/apps/gaussian/g16/l1.exe PID=    321420.
  
 Copyright (c) 1988,1990,1992,1993,1995,1998,2003,2009,2016,
            Gaussian, Inc.  All Rights Reserved.
  
 This is part of the Gaussian(R) 16 program.  It is based on
 the Gaussian(R) 09 system (copyright 2009, Gaussian, Inc.),
 the Gaussian(R) 03 system (copyright 2003, Gaussian, Inc.),
 the Gaussian(R) 98 system (copyright 1998, Gaussian, Inc.),
 the Gaussian(R) 94 system (copyright 1995, Gaussian, Inc.),
 the Gaussian 92(TM) system (copyright 1992, Gaussian, Inc.),
 the Gaussian 90(TM) system (copyright 1990, Gaussian, Inc.),
 the Gaussian 88(TM) system (copyright 1988, Gaussian, Inc.),
 the Gaussian 86(TM) system (copyright 1986, Carnegie Mellon
 University), and the Gaussian 82(TM) system (copyright 1983,
 Carnegie Mellon University). Gaussian is a federally registered
 trademark of Gaussian, Inc.
  
 This software contains proprietary and confidential information,
 including trade secrets, belonging to Gaussian, Inc.
  
 This software is provided under written license and may be
 used, copied, transmitted, or stored only in accord with that
 written license.
  
 The following legend is applicable only to US Government
 contracts under FAR:
  
                    RESTRICTED RIGHTS LEGEND
  
 Use, reproduction and disclosure by the US Government is
 subject to restrictions as set forth in subparagraphs (a)
 and (c) of the Commercial Computer Software - Restricted
 Rights clause in FAR 52.227-19.
  
 Gaussian, Inc.
 340 Quinnipiac St., Bldg. 40, Wallingford CT 06492
  
  
 ---------------------------------------------------------------
 Warning -- This program may not be used in any manner that
 competes with the business of Gaussian, Inc. or will provide
 assistance to any competitor of Gaussian, Inc.  The licensee
 of this program is prohibited from giving any competitor of
 Gaussian, Inc. access to this program.  By using this program,
 the user acknowledges that Gaussian, Inc. is engaged in the
 business of creating and licensing software in the field of
 computational chemistry and represents and warrants to the
 licensee that it is not a competitor of Gaussian, Inc. and that
 it will not use this program in any manner prohibited above.
 ---------------------------------------------------------------
  

 Cite this work as:
 Gaussian 16, Revision A.03,
 M. J. Frisch, G. W. Trucks, H. B. Schlegel, G. E. Scuseria, 
 M. A. Robb, J. R. Cheeseman, G. Scalmani, V. Barone, 
 G. A. Petersson, H. Nakatsuji, X. Li, M. Caricato, A. V. Marenich, 
 J. Bloino, B. G. Janesko, R. Gomperts, B. Mennucci, H. P. Hratchian, 
 J. V. Ortiz, A. F. Izmaylov, J. L. Sonnenberg, D. Williams-Young, 
 F. Ding, F. Lipparini, F. Egidi, J. Goings, B. Peng, A. Petrone, 
 T. Henderson, D. Ranasinghe, V. G. Zakrzewski, J. Gao, N. Rega, 
 G. Zheng, W. Liang, M. Hada, M. Ehara, K. Toyota, R. Fukuda, 
 J. Hasegawa, M. Ishida, T. Nakajima, Y. Honda, O. Kitao, H. Nakai, 
 T. Vreven, K. Throssell, J. A. Montgomery, Jr., J. E. Peralta, 
 F. Ogliaro, M. J. Bearpark, J. J. Heyd, E. N. Brothers, K. N. Kudin, 
 V. N. Staroverov, T. A. Keith, R. Kobayashi, J. Normand, 
 K. Raghavachari, A. P. Rendell, J. C. Burant, S. S. Iyengar, 
 J. Tomasi, M. Cossi, J. M. Millam, M. Klene, C. Adamo, R. Cammi, 
 J. W. Ochterski, R. L. Martin, K. Morokuma, O. Farkas, 
 J. B. Foresman, and D. J. Fox, Gaussian, Inc., Wallingford CT, 2016.
 
 ******************************************
 Gaussian 16:  ES64L-G16RevA.03 25-Dec-2016
                 5-Jun-2019 
 ******************************************
 %nprocshared=2
 Will use up to    2 processors via shared memory.
 %mem=2GB
 ----------------
 # 6-31g(d) wb97x
 ----------------
 1/38=1,172=1/1;
 2/12=2,17=6,18=5,40=1/2;
 3/5=1,6=6,7=1,11=2,25=1,30=1,74=-57/1,2,3;
 4//1;
 5/5=2,38=5/2;
 6/7=2,8=2,9=2,10=2,28=1/1;
 99/5=1,9=1/99;
 -----------------------
 tmpdir/M2_conf_0_92.gjf
 -----------------------
 Symbolic Z-matrix:
 Charge =  0 Multiplicity = 1
 C                     0.        0.        0. 
 C                     1.3943    0.        0. 
 C                     2.11036   0.        1.32101 
 H                    -0.50735   0.00045  -0.86788 
 H                    -0.51934   0.00783   0.95408 
 H                     1.88629  -0.02082  -0.88331 
 O                     1.57631  -0.4395    2.32808 
 H                     3.10015   0.42302   1.30009 
 
                          Input orientation:                          
 ---------------------------------------------------------------------
 Center     Atomic      Atomic             Coordinates (Angstroms)
 Number     Number       Type             X           Y           Z
 ---------------------------------------------------------------------
      1          6           0        0.000000    0.000000    0.000000
      2          6           0        1.394300    0.000000    0.000000
      3          6           0        2.110360    0.000000    1.321010
      4          1           0       -0.507350    0.000450   -0.867880
      5          1           0       -0.519340    0.007830    0.954080
      6          1           0        1.886290   -0.020820   -0.883310
      7          8           0        1.576310   -0.439500    2.328080
      8          1           0        3.100150    0.423020    1.300090
 ---------------------------------------------------------------------
                    Distance matrix (angstroms):
                    1          2          3          4          5
     1  C    0.000000
     2  C    1.394300   0.000000
     3  C    2.489716   1.502601   0.000000
     4  H    1.005296   2.090332   3.412279   0.000000
     5  H    1.086298   2.138305   2.655188   1.822014   0.000000
     6  H    2.082969   1.011298   2.215777   2.393784   3.027190
     7  O    2.845676   2.376183   1.221704   3.840489   2.545531
     8  H    3.388231   2.186116   1.076600   4.229978   3.659619
                    6          7          8
     6  H    0.000000
     7  O    3.253368   0.000000
     8  H    2.537259   2.030466   0.000000
 Stoichiometry    C3H4O
 Framework group  C1[X(C3H4O)]
 Deg. of freedom    18
 Full point group                 C1      NOp   1
 Largest Abelian subgroup         C1      NOp   1
 Largest concise Abelian subgroup C1      NOp   1
                         Standard orientation:                         
 ---------------------------------------------------------------------
 Center     Atomic      Atomic             Coordinates (Angstroms)
 Number     Number       Type             X           Y           Z
 ---------------------------------------------------------------------
      1          6           0       -1.470821   -0.477963    0.053575
      2          6           0       -0.651708    0.642701   -0.077721
      3          6           0        0.830676    0.470646    0.097620
      4          1           0       -2.466448   -0.394511   -0.057705
      5          1           0       -1.009848   -1.433876    0.285477
      6          1           0       -1.070643    1.534196   -0.306753
      7          8           0        1.367833   -0.609228   -0.097042
      8          1           0        1.355395    1.355712    0.414474
 ---------------------------------------------------------------------
 Rotational constants (GHZ):          21.6621164           6.3106443           4.9553591
 Standard basis: 6-31G(d) (6D, 7F)
 There are    68 symmetry adapted cartesian basis functions of A   symmetry.
 There are    68 symmetry adapted basis functions of A   symmetry.
    68 basis functions,   128 primitive gaussians,    68 cartesian basis functions
    15 alpha electrons       15 beta electrons
       nuclear repulsion energy       104.3624360701 Hartrees.
 NAtoms=    8 NActive=    8 NUniq=    8 SFac= 1.00D+00 NAtFMM=   60 NAOKFM=F Big=F
 Integral buffers will be    131072 words long.
 Raffenetti 2 integral format.
 Two-electron integral symmetry is turned on.
 One-electron integrals computed using PRISM.
 NBasis=    68 RedAO= T EigKep=  3.82D-03  NBF=    68
 NBsUse=    68 1.00D-06 EigRej= -1.00D+00 NBFU=    68
 ExpMin= 1.61D-01 ExpMax= 5.48D+03 ExpMxC= 8.25D+02 IAcc=3 IRadAn=         5 AccDes= 0.00D+00
 Harris functional with IExCor= 4538 and IRadAn=       5 diagonalized for initial guess.
 HarFok:  IExCor= 4538 AccDes= 0.00D+00 IRadAn=         5 IDoV= 1 UseB2=F ITyADJ=14
 ICtDFT=  3500011 ScaDFX=  1.000000  1.000000  1.000000  1.000000
 FoFCou: FMM=F IPFlag=           0 FMFlag=      100000 FMFlg1=           0
         NFxFlg=           0 DoJE=T BraDBF=F KetDBF=T FulRan=T
         wScrn=  0.000000 ICntrl=       500 IOpCl=  0 I1Cent=   200000004 NGrid=           0
         NMat0=    1 NMatS0=      1 NMatT0=    0 NMatD0=    1 NMtDS0=    0 NMtDT0=    0
 Petite list used in FoFCou.
 Keep R1 ints in memory in canonical form, NReq=7290824.
 Requested convergence on RMS density matrix=1.00D-08 within 128 cycles.
 Requested convergence on MAX density matrix=1.00D-06.
 Requested convergence on             energy=1.00D-06.
 No special actions if energy rises.
 Integral accuracy reduced to 1.0D-05 until final iterations.
 Initial convergence to 1.0D-05 achieved.  Increase integral accuracy.
 SCF Done:  E(RwB97X) =  -191.835509198     A.U. after   16 cycles
            NFock= 16  Conv=0.73D-08     -V/T= 2.0088

 **********************************************************************

            Population analysis using the SCF density.

 **********************************************************************

 Orbital symmetries:
       Occupied  (A) (A) (A) (A) (A) (A) (A) (A) (A) (A) (A) (A)
                 (A) (A) (A)
       Virtual   (A) (A) (A) (A) (A) (A) (A) (A) (A) (A) (A) (A)
                 (A) (A) (A) (A) (A) (A) (A) (A) (A) (A) (A) (A)
                 (A) (A) (A) (A) (A) (A) (A) (A) (A) (A) (A) (A)
                 (A) (A) (A) (A) (A) (A) (A) (A) (A) (A) (A) (A)
                 (A) (A) (A) (A) (A)
 The electronic state is 1-A.
 Alpha  occ. eigenvalues --  -19.21672 -10.36417 -10.29145 -10.28583  -1.16573
 Alpha  occ. eigenvalues --   -0.91284  -0.78400  -0.67777  -0.62918  -0.55173
 Alpha  occ. eigenvalues --   -0.53491  -0.50225  -0.49309  -0.37349  -0.35866
 Alpha virt. eigenvalues --    0.02508   0.14336   0.22624   0.23461   0.26672
 Alpha virt. eigenvalues --    0.30125   0.35656   0.40119   0.42730   0.62365
 Alpha virt. eigenvalues --    0.63065   0.67980   0.68897   0.70071   0.74940
 Alpha virt. eigenvalues --    0.76022   0.79603   0.91475   0.95550   0.98679
 Alpha virt. eigenvalues --    1.02451   1.04088   1.05751   1.11177   1.13578
 Alpha virt. eigenvalues --    1.19234   1.22111   1.38464   1.47827   1.57382
 Alpha virt. eigenvalues --    1.63565   1.64635   1.75679   1.83589   1.92273
 Alpha virt. eigenvalues --    1.94621   2.07372   2.09384   2.14675   2.26568
 Alpha virt. eigenvalues --    2.30803   2.34579   2.46665   2.60027   2.68260
 Alpha virt. eigenvalues --    2.69472   2.83822   3.02177   3.12096   3.94153
 Alpha virt. eigenvalues --    4.18009   4.27899   4.50862
          Condensed to atoms (all electrons):
               1          2          3          4          5          6
     1  C    5.005591   0.601657  -0.024713   0.382931   0.381592  -0.038629
     2  C    0.601657   5.165514   0.334514  -0.032278  -0.039081   0.370961
     3  C   -0.024713   0.334514   4.578220   0.003439  -0.006628  -0.026954
     4  H    0.382931  -0.032278   0.003439   0.493794  -0.028662  -0.003543
     5  H    0.381592  -0.039081  -0.006628  -0.028662   0.477147   0.003946
     6  H   -0.038629   0.370961  -0.026954  -0.003543   0.003946   0.515208
     7  O    0.001360  -0.090943   0.564866   0.000437   0.010321   0.002615
     8  H    0.006213  -0.106653   0.365932  -0.000062   0.000604   0.002504
               7          8
     1  C    0.001360   0.006213
     2  C   -0.090943  -0.106653
     3  C    0.564866   0.365932
     4  H    0.000437  -0.000062
     5  H    0.010321   0.000604
     6  H    0.002615   0.002504
     7  O    7.951963  -0.048587
     8  H   -0.048587   0.638243
 Mulliken charges:
               1
     1  C   -0.316002
     2  C   -0.203692
     3  C    0.211324
     4  H    0.183944
     5  H    0.200762
     6  H    0.173891
     7  O   -0.392032
     8  H    0.141805
 Sum of Mulliken charges =  -0.00000
 Mulliken charges with hydrogens summed into heavy atoms:
               1
     1  C    0.068704
     2  C   -0.029801
     3  C    0.353129
     7  O   -0.392032
 Electronic spatial extent (au):  <R**2>=            265.2353
 Charge=              0.0000 electrons
 Dipole moment (field-independent basis, Debye):
    X=             -1.9254    Y=              1.7793    Z=              0.3697  Tot=              2.6476
 Quadrupole moment (field-independent basis, Debye-Ang):
   XX=            -23.5108   YY=            -21.7130   ZZ=            -24.2468
   XY=              2.9471   XZ=              0.7028   YZ=             -0.6197
 Traceless Quadrupole moment (field-independent basis, Debye-Ang):
   XX=             -0.3539   YY=              1.4439   ZZ=             -1.0899
   XY=              2.9471   XZ=              0.7028   YZ=             -0.6197
 Octapole moment (field-independent basis, Debye-Ang**2):
  XXX=             -5.6297  YYY=             -0.5195  ZZZ=             -0.2808  XYY=             -0.0222
  XXY=              2.3582  XXZ=             -0.3353  XZZ=              3.4398  YZZ=             -0.6926
  YYZ=              0.2036  XYZ=              0.7092
 Hexadecapole moment (field-independent basis, Debye-Ang**3):
 XXXX=           -214.4367 YYYY=            -80.7221 ZZZZ=            -25.2580 XXXY=              3.8839
 XXXZ=              1.8243 YYYX=             -1.7277 YYYZ=             -1.3768 ZZZX=             -0.2138
 ZZZY=             -0.0772 XXYY=            -50.2393 XXZZ=            -42.6785 YYZZ=            -18.5889
 XXYZ=             -0.3504 YYXZ=              0.8508 ZZXY=             -0.7661
 N-N= 1.043624360701D+02 E-N=-6.561050023534D+02  KE= 1.901636633169D+02
 1\1\GINC-NODE91\SP\RwB97X\6-31G(d)\C3H4O1\YANZ\05-Jun-2019\0\\# 6-31g(
 d) wb97x\\tmpdir/M2_conf_0_92.gjf\\0,1\C,0,0.,0.,0.\C,0,1.3943,0.,0.\C
 ,0,2.11036,0.,1.32101\H,0,-0.50735,0.00045,-0.86788\H,0,-0.51934,0.007
 83,0.95408\H,0,1.88629,-0.02082,-0.88331\O,0,1.57631,-0.4395,2.32808\H
 ,0,3.10015,0.42302,1.30009\\Version=ES64L-G16RevA.03\State=1-A\HF=-191
 .8355092\RMSD=7.271e-09\Dipole=0.1039267,0.342413,-0.9782456\Quadrupol
 e=2.6766157,-1.0800433,-1.5965723,0.2684582,0.0127266,0.8446113\PG=C01
  [X(C3H4O1)]\\@


 DO NOT LET SELFISH MEN OR GREEDY INTERESTS SKIN YOUR COUNTRY OF ITS
 BEAUTY, ITS RICHES, OR ITS ROMANCE. -- THEODORE ROOSEVELT
 Job cpu time:       0 days  0 hours  0 minutes 20.5 seconds.
 Elapsed time:       0 days  0 hours  0 minutes 10.4 seconds.
 File lengths (MBytes):  RWF=      6 Int=      0 D2E=      0 Chk=      1 Scr=      1
 Normal termination of Gaussian 16 at Wed Jun  5 17:00:13 2019.
