 Entering Gaussian System, Link 0=g16
 Initial command:
 /share/apps/gaussian/g16/l1.exe "/tmp/55477.mgr/Gau-322528.inp" -scrdir="/tmp/55477.mgr/"
 Entering Link 1 = /share/apps/gaussian/g16/l1.exe PID=    322529.
  
 Copyright (c) 1988,1990,1992,1993,1995,1998,2003,2009,2016,
            Gaussian, Inc.  All Rights Reserved.
  
 This is part of the Gaussian(R) 16 program.  It is based on
 the Gaussian(R) 09 system (copyright 2009, Gaussian, Inc.),
 the Gaussian(R) 03 system (copyright 2003, Gaussian, Inc.),
 the Gaussian(R) 98 system (copyright 1998, Gaussian, Inc.),
 the Gaussian(R) 94 system (copyright 1995, Gaussian, Inc.),
 the Gaussian 92(TM) system (copyright 1992, Gaussian, Inc.),
 the Gaussian 90(TM) system (copyright 1990, Gaussian, Inc.),
 the Gaussian 88(TM) system (copyright 1988, Gaussian, Inc.),
 the Gaussian 86(TM) system (copyright 1986, Carnegie Mellon
 University), and the Gaussian 82(TM) system (copyright 1983,
 Carnegie Mellon University). Gaussian is a federally registered
 trademark of Gaussian, Inc.
  
 This software contains proprietary and confidential information,
 including trade secrets, belonging to Gaussian, Inc.
  
 This software is provided under written license and may be
 used, copied, transmitted, or stored only in accord with that
 written license.
  
 The following legend is applicable only to US Government
 contracts under FAR:
  
                    RESTRICTED RIGHTS LEGEND
  
 Use, reproduction and disclosure by the US Government is
 subject to restrictions as set forth in subparagraphs (a)
 and (c) of the Commercial Computer Software - Restricted
 Rights clause in FAR 52.227-19.
  
 Gaussian, Inc.
 340 Quinnipiac St., Bldg. 40, Wallingford CT 06492
  
  
 ---------------------------------------------------------------
 Warning -- This program may not be used in any manner that
 competes with the business of Gaussian, Inc. or will provide
 assistance to any competitor of Gaussian, Inc.  The licensee
 of this program is prohibited from giving any competitor of
 Gaussian, Inc. access to this program.  By using this program,
 the user acknowledges that Gaussian, Inc. is engaged in the
 business of creating and licensing software in the field of
 computational chemistry and represents and warrants to the
 licensee that it is not a competitor of Gaussian, Inc. and that
 it will not use this program in any manner prohibited above.
 ---------------------------------------------------------------
  

 Cite this work as:
 Gaussian 16, Revision A.03,
 M. J. Frisch, G. W. Trucks, H. B. Schlegel, G. E. Scuseria, 
 M. A. Robb, J. R. Cheeseman, G. Scalmani, V. Barone, 
 G. A. Petersson, H. Nakatsuji, X. Li, M. Caricato, A. V. Marenich, 
 J. Bloino, B. G. Janesko, R. Gomperts, B. Mennucci, H. P. Hratchian, 
 J. V. Ortiz, A. F. Izmaylov, J. L. Sonnenberg, D. Williams-Young, 
 F. Ding, F. Lipparini, F. Egidi, J. Goings, B. Peng, A. Petrone, 
 T. Henderson, D. Ranasinghe, V. G. Zakrzewski, J. Gao, N. Rega, 
 G. Zheng, W. Liang, M. Hada, M. Ehara, K. Toyota, R. Fukuda, 
 J. Hasegawa, M. Ishida, T. Nakajima, Y. Honda, O. Kitao, H. Nakai, 
 T. Vreven, K. Throssell, J. A. Montgomery, Jr., J. E. Peralta, 
 F. Ogliaro, M. J. Bearpark, J. J. Heyd, E. N. Brothers, K. N. Kudin, 
 V. N. Staroverov, T. A. Keith, R. Kobayashi, J. Normand, 
 K. Raghavachari, A. P. Rendell, J. C. Burant, S. S. Iyengar, 
 J. Tomasi, M. Cossi, J. M. Millam, M. Klene, C. Adamo, R. Cammi, 
 J. W. Ochterski, R. L. Martin, K. Morokuma, O. Farkas, 
 J. B. Foresman, and D. J. Fox, Gaussian, Inc., Wallingford CT, 2016.
 
 ******************************************
 Gaussian 16:  ES64L-G16RevA.03 25-Dec-2016
                 5-Jun-2019 
 ******************************************
 %nprocshared=2
 Will use up to    2 processors via shared memory.
 %mem=2GB
 ----------------
 # 6-31g(d) wb97x
 ----------------
 1/38=1,172=1/1;
 2/12=2,17=6,18=5,40=1/2;
 3/5=1,6=6,7=1,11=2,25=1,30=1,74=-57/1,2,3;
 4//1;
 5/5=2,38=5/2;
 6/7=2,8=2,9=2,10=2,28=1/1;
 99/5=1,9=1/99;
 ------------------------
 tmpdir/M2_conf_0_173.gjf
 ------------------------
 Symbolic Z-matrix:
 Charge =  0 Multiplicity = 1
 C                     0.        0.        0. 
 C                     1.3953    0.        0. 
 C                     2.07232   0.        1.22187 
 H                    -0.5535   -0.01075  -0.93325 
 H                    -0.48379   0.00829   0.8796 
 H                     1.93897  -0.01618  -0.9269 
 O                     1.49698   0.01399   2.35949 
 H                     3.16117  -0.03675   1.24866 
 
                          Input orientation:                          
 ---------------------------------------------------------------------
 Center     Atomic      Atomic             Coordinates (Angstroms)
 Number     Number       Type             X           Y           Z
 ---------------------------------------------------------------------
      1          6           0        0.000000    0.000000    0.000000
      2          6           0        1.395300    0.000000    0.000000
      3          6           0        2.072320    0.000000    1.221870
      4          1           0       -0.553500   -0.010750   -0.933250
      5          1           0       -0.483790    0.008290    0.879600
      6          1           0        1.938970   -0.016180   -0.926900
      7          8           0        1.496980    0.013990    2.359490
      8          1           0        3.161170   -0.036750    1.248660
 ---------------------------------------------------------------------
                    Distance matrix (angstroms):
                    1          2          3          4          5
     1  C    0.000000
     2  C    1.395300   0.000000
     3  C    2.405717   1.396897   0.000000
     4  H    1.085096   2.160762   3.396997   0.000000
     5  H    1.003901   2.074788   2.578937   1.814290   0.000000
     6  H    2.149188   1.074701   2.152965   2.492484   3.022219
     7  O    2.794340   2.361721   1.274908   3.879074   2.472561
     8  H    3.399044   2.163053   1.089799   4.308153   3.663873
                    6          7          8
     6  H    0.000000
     7  O    3.316116   0.000000
     8  H    2.495447   2.001511   0.000000
 Stoichiometry    C3H4O
 Framework group  C1[X(C3H4O)]
 Deg. of freedom    18
 Full point group                 C1      NOp   1
 Largest Abelian subgroup         C1      NOp   1
 Largest concise Abelian subgroup C1      NOp   1
                         Standard orientation:                         
 ---------------------------------------------------------------------
 Center     Atomic      Atomic             Coordinates (Angstroms)
 Number     Number       Type             X           Y           Z
 ---------------------------------------------------------------------
      1          6           0        1.425786   -0.504280    0.002437
      2          6           0        0.629029    0.641128   -0.006566
      3          6           0       -0.760632    0.499236   -0.000728
      4          1           0        2.508012   -0.425678    0.008962
      5          1           0        0.979934   -1.403740    0.004616
      6          1           0        1.079542    1.616830   -0.001637
      7          8           0       -1.366039   -0.622758   -0.001502
      8          1           0       -1.404273    1.378151    0.029219
 ---------------------------------------------------------------------
 Rotational constants (GHZ):          21.2790663           6.6191018           5.0488123
 Standard basis: 6-31G(d) (6D, 7F)
 There are    68 symmetry adapted cartesian basis functions of A   symmetry.
 There are    68 symmetry adapted basis functions of A   symmetry.
    68 basis functions,   128 primitive gaussians,    68 cartesian basis functions
    15 alpha electrons       15 beta electrons
       nuclear repulsion energy       104.8079593886 Hartrees.
 NAtoms=    8 NActive=    8 NUniq=    8 SFac= 1.00D+00 NAtFMM=   60 NAOKFM=F Big=F
 Integral buffers will be    131072 words long.
 Raffenetti 2 integral format.
 Two-electron integral symmetry is turned on.
 One-electron integrals computed using PRISM.
 NBasis=    68 RedAO= T EigKep=  3.03D-03  NBF=    68
 NBsUse=    68 1.00D-06 EigRej= -1.00D+00 NBFU=    68
 ExpMin= 1.61D-01 ExpMax= 5.48D+03 ExpMxC= 8.25D+02 IAcc=3 IRadAn=         5 AccDes= 0.00D+00
 Harris functional with IExCor= 4538 and IRadAn=       5 diagonalized for initial guess.
 HarFok:  IExCor= 4538 AccDes= 0.00D+00 IRadAn=         5 IDoV= 1 UseB2=F ITyADJ=14
 ICtDFT=  3500011 ScaDFX=  1.000000  1.000000  1.000000  1.000000
 FoFCou: FMM=F IPFlag=           0 FMFlag=      100000 FMFlg1=           0
         NFxFlg=           0 DoJE=T BraDBF=F KetDBF=T FulRan=T
         wScrn=  0.000000 ICntrl=       500 IOpCl=  0 I1Cent=   200000004 NGrid=           0
         NMat0=    1 NMatS0=      1 NMatT0=    0 NMatD0=    1 NMtDS0=    0 NMtDT0=    0
 Petite list used in FoFCou.
 Keep R1 ints in memory in canonical form, NReq=7290824.
 Requested convergence on RMS density matrix=1.00D-08 within 128 cycles.
 Requested convergence on MAX density matrix=1.00D-06.
 Requested convergence on             energy=1.00D-06.
 No special actions if energy rises.
 Integral accuracy reduced to 1.0D-05 until final iterations.
 Initial convergence to 1.0D-05 achieved.  Increase integral accuracy.
 SCF Done:  E(RwB97X) =  -191.833889211     A.U. after   16 cycles
            NFock= 16  Conv=0.83D-08     -V/T= 2.0091

 **********************************************************************

            Population analysis using the SCF density.

 **********************************************************************

 Orbital symmetries:
       Occupied  (A) (A) (A) (A) (A) (A) (A) (A) (A) (A) (A) (A)
                 (A) (A) (A)
       Virtual   (A) (A) (A) (A) (A) (A) (A) (A) (A) (A) (A) (A)
                 (A) (A) (A) (A) (A) (A) (A) (A) (A) (A) (A) (A)
                 (A) (A) (A) (A) (A) (A) (A) (A) (A) (A) (A) (A)
                 (A) (A) (A) (A) (A) (A) (A) (A) (A) (A) (A) (A)
                 (A) (A) (A) (A) (A)
 The electronic state is 1-A.
 Alpha  occ. eigenvalues --  -19.20477 -10.35548 -10.30476 -10.29341  -1.13230
 Alpha  occ. eigenvalues --   -0.92783  -0.79896  -0.66909  -0.63316  -0.55283
 Alpha  occ. eigenvalues --   -0.52465  -0.49411  -0.49183  -0.37119  -0.35520
 Alpha virt. eigenvalues --    0.00353   0.16580   0.20070   0.24066   0.26765
 Alpha virt. eigenvalues --    0.29910   0.34244   0.41072   0.45592   0.62060
 Alpha virt. eigenvalues --    0.62267   0.68477   0.68915   0.69609   0.73710
 Alpha virt. eigenvalues --    0.74962   0.76910   0.93303   0.96545   0.98478
 Alpha virt. eigenvalues --    0.99169   1.03663   1.08783   1.11084   1.20565
 Alpha virt. eigenvalues --    1.22117   1.24076   1.38674   1.43137   1.51769
 Alpha virt. eigenvalues --    1.64286   1.66049   1.75191   1.87339   1.94236
 Alpha virt. eigenvalues --    1.95260   2.02936   2.05725   2.17411   2.32228
 Alpha virt. eigenvalues --    2.32395   2.37235   2.38721   2.62481   2.65360
 Alpha virt. eigenvalues --    2.70537   2.87030   2.98316   3.17166   3.94643
 Alpha virt. eigenvalues --    4.20355   4.27658   4.51531
          Condensed to atoms (all electrons):
               1          2          3          4          5          6
     1  C    5.019660   0.575463  -0.024833   0.369923   0.387198  -0.036903
     2  C    0.575463   5.203943   0.313857  -0.030805  -0.040038   0.365287
     3  C   -0.024833   0.313857   4.617105   0.003851  -0.007303  -0.026148
     4  H    0.369923  -0.030805   0.003851   0.501209  -0.027086  -0.003030
     5  H    0.387198  -0.040038  -0.007303  -0.027086   0.449805   0.003769
     6  H   -0.036903   0.365287  -0.026148  -0.003030   0.003769   0.516181
     7  O   -0.001700  -0.089565   0.539219   0.000482   0.015978   0.002521
     8  H    0.007664  -0.108000   0.383002  -0.000040   0.000666   0.000388
               7          8
     1  C   -0.001700   0.007664
     2  C   -0.089565  -0.108000
     3  C    0.539219   0.383002
     4  H    0.000482  -0.000040
     5  H    0.015978   0.000666
     6  H    0.002521   0.000388
     7  O    8.027225  -0.056045
     8  H   -0.056045   0.629330
 Mulliken charges:
               1
     1  C   -0.296473
     2  C   -0.190143
     3  C    0.201250
     4  H    0.185497
     5  H    0.217011
     6  H    0.177936
     7  O   -0.438115
     8  H    0.143035
 Sum of Mulliken charges =  -0.00000
 Mulliken charges with hydrogens summed into heavy atoms:
               1
     1  C    0.106036
     2  C   -0.012206
     3  C    0.344285
     7  O   -0.438115
 Electronic spatial extent (au):  <R**2>=            261.0437
 Charge=             -0.0000 electrons
 Dipole moment (field-independent basis, Debye):
    X=              2.5267    Y=              1.7457    Z=              0.0229  Tot=              3.0712
 Quadrupole moment (field-independent basis, Debye-Ang):
   XX=            -23.5348   YY=            -21.6526   ZZ=            -24.3835
   XY=             -3.2073   XZ=              0.0079   YZ=              0.0016
 Traceless Quadrupole moment (field-independent basis, Debye-Ang):
   XX=             -0.3445   YY=              1.5377   ZZ=             -1.1932
   XY=             -3.2073   XZ=              0.0079   YZ=              0.0016
 Octapole moment (field-independent basis, Debye-Ang**2):
  XXX=              7.0910  YYY=             -0.5033  ZZZ=              0.0196  XYY=              0.5591
  XXY=              2.1781  XXZ=              0.0685  XZZ=             -3.1385  YZZ=             -1.0879
  YYZ=              0.0494  XYZ=             -0.0226
 Hexadecapole moment (field-independent basis, Debye-Ang**3):
 XXXX=           -207.2982 YYYY=            -83.3359 ZZZZ=            -22.7715 XXXY=             -5.3438
 XXXZ=              0.1033 YYYX=              1.6828 YYYZ=              0.0325 ZZZX=              0.0326
 ZZZY=              0.0041 XXYY=            -49.2348 XXZZ=            -41.7283 YYZZ=            -19.1543
 XXYZ=              0.0422 YYXZ=             -0.0368 ZZXY=              0.6525
 N-N= 1.048079593886D+02 E-N=-6.570051643167D+02  KE= 1.901028006611D+02
 1\1\GINC-NODE91\SP\RwB97X\6-31G(d)\C3H4O1\YANZ\05-Jun-2019\0\\# 6-31g(
 d) wb97x\\tmpdir/M2_conf_0_173.gjf\\0,1\C,0,0.,0.,0.\C,0,1.3953,0.,0.\
 C,0,2.07232,0.,1.22187\H,0,-0.5535,-0.01075,-0.93325\H,0,-0.48379,0.00
 829,0.8796\H,0,1.93897,-0.01618,-0.9269\O,0,1.49698,0.01399,2.35949\H,
 0,3.16117,-0.03675,1.24866\\Version=ES64L-G16RevA.03\State=1-A\HF=-191
 .8338892\RMSD=8.298e-09\Dipole=-0.0038851,-0.019077,-1.2081341\Quadrup
 ole=2.9224564,-0.8869742,-2.0354822,-0.0207661,0.1736114,-0.0051738\PG
 =C01 [X(C3H4O1)]\\@


 MATERIAL COPIED FROM ONE SCHOLARLY BOOK WITHOUT CREDIT COMPRISES PLAGIARISM.
 MATERIAL COPIED FROM TWO SCHOLARLY BOOKS COMPRISES AN ESSAY.
 MATERIAL COPIED FROM THREE SCHOLARLY BOOKS COMPRISES A DISSERTATION.
 MATERIAL COPIED FROM FOUR SCHOLARLY BOOKS COMPRISES A FIFTH SCHOLARLY BOOK.

                               -- C&EN, 25 FEB 1980
 Job cpu time:       0 days  0 hours  0 minutes 18.7 seconds.
 Elapsed time:       0 days  0 hours  0 minutes  9.5 seconds.
 File lengths (MBytes):  RWF=      6 Int=      0 D2E=      0 Chk=      1 Scr=      1
 Normal termination of Gaussian 16 at Wed Jun  5 17:01:09 2019.
