 Entering Gaussian System, Link 0=g16
 Initial command:
 /share/apps/gaussian/g16/l1.exe "/tmp/55477.mgr/Gau-326251.inp" -scrdir="/tmp/55477.mgr/"
 Entering Link 1 = /share/apps/gaussian/g16/l1.exe PID=    326252.
  
 Copyright (c) 1988,1990,1992,1993,1995,1998,2003,2009,2016,
            Gaussian, Inc.  All Rights Reserved.
  
 This is part of the Gaussian(R) 16 program.  It is based on
 the Gaussian(R) 09 system (copyright 2009, Gaussian, Inc.),
 the Gaussian(R) 03 system (copyright 2003, Gaussian, Inc.),
 the Gaussian(R) 98 system (copyright 1998, Gaussian, Inc.),
 the Gaussian(R) 94 system (copyright 1995, Gaussian, Inc.),
 the Gaussian 92(TM) system (copyright 1992, Gaussian, Inc.),
 the Gaussian 90(TM) system (copyright 1990, Gaussian, Inc.),
 the Gaussian 88(TM) system (copyright 1988, Gaussian, Inc.),
 the Gaussian 86(TM) system (copyright 1986, Carnegie Mellon
 University), and the Gaussian 82(TM) system (copyright 1983,
 Carnegie Mellon University). Gaussian is a federally registered
 trademark of Gaussian, Inc.
  
 This software contains proprietary and confidential information,
 including trade secrets, belonging to Gaussian, Inc.
  
 This software is provided under written license and may be
 used, copied, transmitted, or stored only in accord with that
 written license.
  
 The following legend is applicable only to US Government
 contracts under FAR:
  
                    RESTRICTED RIGHTS LEGEND
  
 Use, reproduction and disclosure by the US Government is
 subject to restrictions as set forth in subparagraphs (a)
 and (c) of the Commercial Computer Software - Restricted
 Rights clause in FAR 52.227-19.
  
 Gaussian, Inc.
 340 Quinnipiac St., Bldg. 40, Wallingford CT 06492
  
  
 ---------------------------------------------------------------
 Warning -- This program may not be used in any manner that
 competes with the business of Gaussian, Inc. or will provide
 assistance to any competitor of Gaussian, Inc.  The licensee
 of this program is prohibited from giving any competitor of
 Gaussian, Inc. access to this program.  By using this program,
 the user acknowledges that Gaussian, Inc. is engaged in the
 business of creating and licensing software in the field of
 computational chemistry and represents and warrants to the
 licensee that it is not a competitor of Gaussian, Inc. and that
 it will not use this program in any manner prohibited above.
 ---------------------------------------------------------------
  

 Cite this work as:
 Gaussian 16, Revision A.03,
 M. J. Frisch, G. W. Trucks, H. B. Schlegel, G. E. Scuseria, 
 M. A. Robb, J. R. Cheeseman, G. Scalmani, V. Barone, 
 G. A. Petersson, H. Nakatsuji, X. Li, M. Caricato, A. V. Marenich, 
 J. Bloino, B. G. Janesko, R. Gomperts, B. Mennucci, H. P. Hratchian, 
 J. V. Ortiz, A. F. Izmaylov, J. L. Sonnenberg, D. Williams-Young, 
 F. Ding, F. Lipparini, F. Egidi, J. Goings, B. Peng, A. Petrone, 
 T. Henderson, D. Ranasinghe, V. G. Zakrzewski, J. Gao, N. Rega, 
 G. Zheng, W. Liang, M. Hada, M. Ehara, K. Toyota, R. Fukuda, 
 J. Hasegawa, M. Ishida, T. Nakajima, Y. Honda, O. Kitao, H. Nakai, 
 T. Vreven, K. Throssell, J. A. Montgomery, Jr., J. E. Peralta, 
 F. Ogliaro, M. J. Bearpark, J. J. Heyd, E. N. Brothers, K. N. Kudin, 
 V. N. Staroverov, T. A. Keith, R. Kobayashi, J. Normand, 
 K. Raghavachari, A. P. Rendell, J. C. Burant, S. S. Iyengar, 
 J. Tomasi, M. Cossi, J. M. Millam, M. Klene, C. Adamo, R. Cammi, 
 J. W. Ochterski, R. L. Martin, K. Morokuma, O. Farkas, 
 J. B. Foresman, and D. J. Fox, Gaussian, Inc., Wallingford CT, 2016.
 
 ******************************************
 Gaussian 16:  ES64L-G16RevA.03 25-Dec-2016
                 5-Jun-2019 
 ******************************************
 %nprocshared=2
 Will use up to    2 processors via shared memory.
 %mem=2GB
 ----------------
 # 6-31g(d) wb97x
 ----------------
 1/38=1,172=1/1;
 2/12=2,17=6,18=5,40=1/2;
 3/5=1,6=6,7=1,11=2,25=1,30=1,74=-57/1,2,3;
 4//1;
 5/5=2,38=5/2;
 6/7=2,8=2,9=2,10=2,28=1/1;
 99/5=1,9=1/99;
 ------------------------
 tmpdir/M2_conf_2_101.gjf
 ------------------------
 Symbolic Z-matrix:
 Charge =  0 Multiplicity = 1
 C                     0.        0.        0. 
 N                     1.3697    0.        0. 
 C                     2.22563   0.        1.12601 
 H                    -0.45796   0.02462  -0.98628 
 O                    -0.68317  -0.01008   1.01279 
 H                     1.81075   0.20414  -0.88424 
 O                     1.87616  -0.45162   2.21486 
 H                     3.15894   0.35928   0.99747 
 
                          Input orientation:                          
 ---------------------------------------------------------------------
 Center     Atomic      Atomic             Coordinates (Angstroms)
 Number     Number       Type             X           Y           Z
 ---------------------------------------------------------------------
      1          6           0        0.000000    0.000000    0.000000
      2          7           0        1.369700    0.000000    0.000000
      3          6           0        2.225630    0.000000    1.126010
      4          1           0       -0.457960    0.024620   -0.986280
      5          8           0       -0.683170   -0.010080    1.012790
      6          1           0        1.810750    0.204140   -0.884240
      7          8           0        1.876160   -0.451620    2.214860
      8          1           0        3.158940    0.359280    0.997470
 ---------------------------------------------------------------------
                    Distance matrix (angstroms):
                    1          2          3          4          5
     1  C    0.000000
     2  N    1.369700   0.000000
     3  C    2.494259   1.414396   0.000000
     4  H    1.087696   2.076944   3.415264   0.000000
     5  O    1.221706   2.289131   2.911020   2.012015   0.000000
     6  H    2.025431   1.008999   2.062742   2.278088   3.140740
     7  O    2.937608   2.316477   1.229506   3.990265   2.861835
     8  H    3.332106   2.079762   1.008302   4.138747   3.859854
                    6          7          8
     6  H    0.000000
     7  O    3.168394   0.000000
     8  H    2.320025   1.945539   0.000000
 Stoichiometry    C2H3NO2
 Framework group  C1[X(C2H3NO2)]
 Deg. of freedom    18
 Full point group                 C1      NOp   1
 Largest Abelian subgroup         C1      NOp   1
 Largest concise Abelian subgroup C1      NOp   1
                         Standard orientation:                         
 ---------------------------------------------------------------------
 Center     Atomic      Atomic             Coordinates (Angstroms)
 Number     Number       Type             X           Y           Z
 ---------------------------------------------------------------------
      1          6           0       -1.249000    0.295199   -0.059605
      2          7           0       -0.032325    0.924281   -0.065695
      3          6           0        1.238105    0.332674    0.125417
      4          1           0       -2.104480    0.951225   -0.204050
      5          8           0       -1.396249   -0.905849    0.108823
      6          1           0       -0.056581    1.931937   -0.019666
      7          8           0        1.455119   -0.850410   -0.129342
      8          1           0        1.981743    0.929708    0.452869
 ---------------------------------------------------------------------
 Rotational constants (GHZ):          11.1417914           4.5284563           3.2605392
 Standard basis: 6-31G(d) (6D, 7F)
 There are    81 symmetry adapted cartesian basis functions of A   symmetry.
 There are    81 symmetry adapted basis functions of A   symmetry.
    81 basis functions,   152 primitive gaussians,    81 cartesian basis functions
    19 alpha electrons       19 beta electrons
       nuclear repulsion energy       163.9758645547 Hartrees.
 NAtoms=    8 NActive=    8 NUniq=    8 SFac= 1.00D+00 NAtFMM=   60 NAOKFM=F Big=F
 Integral buffers will be    131072 words long.
 Raffenetti 2 integral format.
 Two-electron integral symmetry is turned on.
 One-electron integrals computed using PRISM.
 NBasis=    81 RedAO= T EigKep=  4.29D-03  NBF=    81
 NBsUse=    81 1.00D-06 EigRej= -1.00D+00 NBFU=    81
 ExpMin= 1.61D-01 ExpMax= 5.48D+03 ExpMxC= 8.25D+02 IAcc=3 IRadAn=         5 AccDes= 0.00D+00
 Harris functional with IExCor= 4538 and IRadAn=       5 diagonalized for initial guess.
 HarFok:  IExCor= 4538 AccDes= 0.00D+00 IRadAn=         5 IDoV= 1 UseB2=F ITyADJ=14
 ICtDFT=  3500011 ScaDFX=  1.000000  1.000000  1.000000  1.000000
 FoFCou: FMM=F IPFlag=           0 FMFlag=      100000 FMFlg1=           0
         NFxFlg=           0 DoJE=T BraDBF=F KetDBF=T FulRan=T
         wScrn=  0.000000 ICntrl=       500 IOpCl=  0 I1Cent=   200000004 NGrid=           0
         NMat0=    1 NMatS0=      1 NMatT0=    0 NMatD0=    1 NMtDS0=    0 NMtDT0=    0
 Petite list used in FoFCou.
 Keep R1 ints in memory in canonical form, NReq=12842125.
 Requested convergence on RMS density matrix=1.00D-08 within 128 cycles.
 Requested convergence on MAX density matrix=1.00D-06.
 Requested convergence on             energy=1.00D-06.
 No special actions if energy rises.
 Integral accuracy reduced to 1.0D-05 until final iterations.
 Initial convergence to 1.0D-05 achieved.  Increase integral accuracy.
 SCF Done:  E(RwB97X) =  -283.127705200     A.U. after   17 cycles
            NFock= 17  Conv=0.62D-08     -V/T= 2.0087

 **********************************************************************

            Population analysis using the SCF density.

 **********************************************************************

 Orbital symmetries:
       Occupied  (A) (A) (A) (A) (A) (A) (A) (A) (A) (A) (A) (A)
                 (A) (A) (A) (A) (A) (A) (A)
       Virtual   (A) (A) (A) (A) (A) (A) (A) (A) (A) (A) (A) (A)
                 (A) (A) (A) (A) (A) (A) (A) (A) (A) (A) (A) (A)
                 (A) (A) (A) (A) (A) (A) (A) (A) (A) (A) (A) (A)
                 (A) (A) (A) (A) (A) (A) (A) (A) (A) (A) (A) (A)
                 (A) (A) (A) (A) (A) (A) (A) (A) (A) (A) (A) (A)
                 (A) (A)
 The electronic state is 1-A.
 Alpha  occ. eigenvalues --  -19.21866 -19.20806 -14.47903 -10.39895 -10.39674
 Alpha  occ. eigenvalues --   -1.19402  -1.16298  -1.07340  -0.83236  -0.71217
 Alpha  occ. eigenvalues --   -0.70414  -0.62323  -0.56409  -0.54928  -0.53269
 Alpha  occ. eigenvalues --   -0.48803  -0.40150  -0.39217  -0.35853
 Alpha virt. eigenvalues --    0.04780   0.13338   0.15734   0.22330   0.24422
 Alpha virt. eigenvalues --    0.32700   0.34183   0.40140   0.44523   0.59488
 Alpha virt. eigenvalues --    0.60957   0.65181   0.69800   0.72958   0.74954
 Alpha virt. eigenvalues --    0.78656   0.86187   0.91920   0.93120   0.96075
 Alpha virt. eigenvalues --    0.97065   0.99880   1.00978   1.08918   1.10468
 Alpha virt. eigenvalues --    1.14966   1.20975   1.28933   1.33733   1.36477
 Alpha virt. eigenvalues --    1.48413   1.52095   1.59025   1.61271   1.62082
 Alpha virt. eigenvalues --    1.63239   1.84391   1.88082   1.91858   1.94149
 Alpha virt. eigenvalues --    1.97062   1.98607   2.12927   2.17462   2.26319
 Alpha virt. eigenvalues --    2.30157   2.35187   2.43215   2.53293   2.59404
 Alpha virt. eigenvalues --    2.65549   2.77409   2.84946   2.86887   3.00847
 Alpha virt. eigenvalues --    3.04732   3.28256   3.84556   3.97689   4.05582
 Alpha virt. eigenvalues --    4.22868   4.42461
          Condensed to atoms (all electrons):
               1          2          3          4          5          6
     1  C    4.498751   0.169756  -0.007722   0.396688   0.610765  -0.013609
     2  N    0.169756   7.347613   0.179930  -0.112260  -0.090731   0.293799
     3  C   -0.007722   0.179930   4.491326   0.003017   0.006528  -0.013352
     4  H    0.396688  -0.112260   0.003017   0.606160  -0.047886   0.002094
     5  O    0.610765  -0.090731   0.006528  -0.047886   7.914223   0.002452
     6  H   -0.013609   0.293799  -0.013352   0.002094   0.002452   0.371054
     7  O    0.003240  -0.085477   0.594484  -0.000130  -0.004506   0.002365
     8  H    0.002823  -0.103752   0.396530  -0.000115  -0.000001   0.002592
               7          8
     1  C    0.003240   0.002823
     2  N   -0.085477  -0.103752
     3  C    0.594484   0.396530
     4  H   -0.000130  -0.000115
     5  O   -0.004506  -0.000001
     6  H    0.002365   0.002592
     7  O    7.913392  -0.048202
     8  H   -0.048202   0.578844
 Mulliken charges:
               1
     1  C    0.339309
     2  N   -0.598878
     3  C    0.349260
     4  H    0.152431
     5  O   -0.390844
     6  H    0.352606
     7  O   -0.375166
     8  H    0.171281
 Sum of Mulliken charges =  -0.00000
 Mulliken charges with hydrogens summed into heavy atoms:
               1
     1  C    0.491741
     2  N   -0.246272
     3  C    0.520541
     5  O   -0.390844
     7  O   -0.375166
 Electronic spatial extent (au):  <R**2>=            364.9508
 Charge=             -0.0000 electrons
 Dipole moment (field-independent basis, Debye):
    X=              0.1179    Y=              5.8266    Z=              0.3707  Tot=              5.8395
 Quadrupole moment (field-independent basis, Debye-Ang):
   XX=            -27.9023   YY=            -26.5072   ZZ=            -27.7123
   XY=             -0.0325   XZ=              1.5186   YZ=              0.2634
 Traceless Quadrupole moment (field-independent basis, Debye-Ang):
   XX=             -0.5283   YY=              0.8667   ZZ=             -0.3384
   XY=             -0.0325   XZ=              1.5186   YZ=              0.2634
 Octapole moment (field-independent basis, Debye-Ang**2):
  XXX=              0.3346  YYY=              9.0167  ZZZ=              0.3010  XYY=              0.4633
  XXY=             11.4276  XXZ=              0.5074  XZZ=              0.4857  YZZ=             -1.6379
  YYZ=              0.2167  XYZ=              0.1071
 Hexadecapole moment (field-independent basis, Debye-Ang**3):
 XXXX=           -275.7965 YYYY=           -107.1100 ZZZZ=            -25.4317 XXXY=              0.5644
 XXXZ=              3.8681 YYYX=             -0.4515 YYYZ=              0.2495 ZZZX=             -0.6323
 ZZZY=              0.4132 XXYY=            -70.6396 XXZZ=            -49.5429 YYZZ=            -25.7627
 XXYZ=              0.7261 YYXZ=              0.7673 ZZXY=              0.3567
 N-N= 1.639758645547D+02 E-N=-9.913123446010D+02  KE= 2.806743123863D+02
 1\1\GINC-NODE91\SP\RwB97X\6-31G(d)\C2H3N1O2\YANZ\05-Jun-2019\0\\# 6-31
 g(d) wb97x\\tmpdir/M2_conf_2_101.gjf\\0,1\C,0,0.,0.,0.\N,0,1.3697,0.,0
 .\C,0,2.22563,0.,1.12601\H,0,-0.45796,0.02462,-0.98628\O,0,-0.68317,-0
 .01008,1.01279\H,0,1.81075,0.20414,-0.88424\O,0,1.87616,-0.45162,2.214
 86\H,0,3.15894,0.35928,0.99747\\Version=ES64L-G16RevA.03\State=1-A\HF=
 -283.1277052\RMSD=6.161e-09\Dipole=1.0933954,0.4972377,-1.9584507\Quad
 rupole=-0.2034812,-0.3381409,0.5416221,1.1476537,-0.2152696,0.2051041\
 PG=C01 [X(C2H3N1O2)]\\@


 IT'S WHAT YOU LEARN AFTER YOU KNOW IT ALL
 THAT COUNTS.
 Job cpu time:       0 days  0 hours  0 minutes 26.1 seconds.
 Elapsed time:       0 days  0 hours  0 minutes 13.3 seconds.
 File lengths (MBytes):  RWF=      6 Int=      0 D2E=      0 Chk=      1 Scr=      1
 Normal termination of Gaussian 16 at Wed Jun  5 17:04:12 2019.
