 Entering Gaussian System, Link 0=g16
 Initial command:
 /share/apps/gaussian/g16/l1.exe "/tmp/55477.mgr/Gau-325812.inp" -scrdir="/tmp/55477.mgr/"
 Entering Link 1 = /share/apps/gaussian/g16/l1.exe PID=    325813.
  
 Copyright (c) 1988,1990,1992,1993,1995,1998,2003,2009,2016,
            Gaussian, Inc.  All Rights Reserved.
  
 This is part of the Gaussian(R) 16 program.  It is based on
 the Gaussian(R) 09 system (copyright 2009, Gaussian, Inc.),
 the Gaussian(R) 03 system (copyright 2003, Gaussian, Inc.),
 the Gaussian(R) 98 system (copyright 1998, Gaussian, Inc.),
 the Gaussian(R) 94 system (copyright 1995, Gaussian, Inc.),
 the Gaussian 92(TM) system (copyright 1992, Gaussian, Inc.),
 the Gaussian 90(TM) system (copyright 1990, Gaussian, Inc.),
 the Gaussian 88(TM) system (copyright 1988, Gaussian, Inc.),
 the Gaussian 86(TM) system (copyright 1986, Carnegie Mellon
 University), and the Gaussian 82(TM) system (copyright 1983,
 Carnegie Mellon University). Gaussian is a federally registered
 trademark of Gaussian, Inc.
  
 This software contains proprietary and confidential information,
 including trade secrets, belonging to Gaussian, Inc.
  
 This software is provided under written license and may be
 used, copied, transmitted, or stored only in accord with that
 written license.
  
 The following legend is applicable only to US Government
 contracts under FAR:
  
                    RESTRICTED RIGHTS LEGEND
  
 Use, reproduction and disclosure by the US Government is
 subject to restrictions as set forth in subparagraphs (a)
 and (c) of the Commercial Computer Software - Restricted
 Rights clause in FAR 52.227-19.
  
 Gaussian, Inc.
 340 Quinnipiac St., Bldg. 40, Wallingford CT 06492
  
  
 ---------------------------------------------------------------
 Warning -- This program may not be used in any manner that
 competes with the business of Gaussian, Inc. or will provide
 assistance to any competitor of Gaussian, Inc.  The licensee
 of this program is prohibited from giving any competitor of
 Gaussian, Inc. access to this program.  By using this program,
 the user acknowledges that Gaussian, Inc. is engaged in the
 business of creating and licensing software in the field of
 computational chemistry and represents and warrants to the
 licensee that it is not a competitor of Gaussian, Inc. and that
 it will not use this program in any manner prohibited above.
 ---------------------------------------------------------------
  

 Cite this work as:
 Gaussian 16, Revision A.03,
 M. J. Frisch, G. W. Trucks, H. B. Schlegel, G. E. Scuseria, 
 M. A. Robb, J. R. Cheeseman, G. Scalmani, V. Barone, 
 G. A. Petersson, H. Nakatsuji, X. Li, M. Caricato, A. V. Marenich, 
 J. Bloino, B. G. Janesko, R. Gomperts, B. Mennucci, H. P. Hratchian, 
 J. V. Ortiz, A. F. Izmaylov, J. L. Sonnenberg, D. Williams-Young, 
 F. Ding, F. Lipparini, F. Egidi, J. Goings, B. Peng, A. Petrone, 
 T. Henderson, D. Ranasinghe, V. G. Zakrzewski, J. Gao, N. Rega, 
 G. Zheng, W. Liang, M. Hada, M. Ehara, K. Toyota, R. Fukuda, 
 J. Hasegawa, M. Ishida, T. Nakajima, Y. Honda, O. Kitao, H. Nakai, 
 T. Vreven, K. Throssell, J. A. Montgomery, Jr., J. E. Peralta, 
 F. Ogliaro, M. J. Bearpark, J. J. Heyd, E. N. Brothers, K. N. Kudin, 
 V. N. Staroverov, T. A. Keith, R. Kobayashi, J. Normand, 
 K. Raghavachari, A. P. Rendell, J. C. Burant, S. S. Iyengar, 
 J. Tomasi, M. Cossi, J. M. Millam, M. Klene, C. Adamo, R. Cammi, 
 J. W. Ochterski, R. L. Martin, K. Morokuma, O. Farkas, 
 J. B. Foresman, and D. J. Fox, Gaussian, Inc., Wallingford CT, 2016.
 
 ******************************************
 Gaussian 16:  ES64L-G16RevA.03 25-Dec-2016
                 5-Jun-2019 
 ******************************************
 %nprocshared=2
 Will use up to    2 processors via shared memory.
 %mem=2GB
 ----------------
 # 6-31g(d) wb97x
 ----------------
 1/38=1,172=1/1;
 2/12=2,17=6,18=5,40=1/2;
 3/5=1,6=6,7=1,11=2,25=1,30=1,74=-57/1,2,3;
 4//1;
 5/5=2,38=5/2;
 6/7=2,8=2,9=2,10=2,28=1/1;
 99/5=1,9=1/99;
 -----------------------
 tmpdir/M2_conf_2_29.gjf
 -----------------------
 Symbolic Z-matrix:
 Charge =  0 Multiplicity = 1
 N                     0.        0.        0. 
 C                     1.4479    0.        0. 
 H                     1.84349   0.        1.02147 
 H                    -0.3722    0.81183   0.48818 
 H                    -0.37257  -0.03884  -0.94647 
 H                     1.877     0.87808  -0.52054 
 H                     1.81805  -0.90448  -0.49478 
 
                          Input orientation:                          
 ---------------------------------------------------------------------
 Center     Atomic      Atomic             Coordinates (Angstroms)
 Number     Number       Type             X           Y           Z
 ---------------------------------------------------------------------
      1          7           0        0.000000    0.000000    0.000000
      2          6           0        1.447900    0.000000    0.000000
      3          1           0        1.843490    0.000000    1.021470
      4          1           0       -0.372200    0.811830    0.488180
      5          1           0       -0.372570   -0.038840   -0.946470
      6          1           0        1.877000    0.878080   -0.520540
      7          1           0        1.818050   -0.904480   -0.494780
 ---------------------------------------------------------------------
                    Distance matrix (angstroms):
                    1          2          3          4          5
     1  N    0.000000
     2  C    1.447900   0.000000
     3  H    2.107571   1.095396   0.000000
     4  H    1.017802   2.051865   2.419245   0.000000
     5  H    1.017901   2.052176   2.963987   1.667891   0.000000
     6  H    2.136613   1.107300   1.774808   2.465929   2.466318
     7  H    2.090023   1.095401   1.765714   2.951123   2.398369
                    6          7
     6  H    0.000000
     7  H    1.783721   0.000000
 Stoichiometry    CH5N
 Framework group  C1[X(CH5N)]
 Deg. of freedom    15
 Full point group                 C1      NOp   1
 Largest Abelian subgroup         C1      NOp   1
 Largest concise Abelian subgroup C1      NOp   1
                         Standard orientation:                         
 ---------------------------------------------------------------------
 Center     Atomic      Atomic             Coordinates (Angstroms)
 Number     Number       Type             X           Y           Z
 ---------------------------------------------------------------------
      1          7           0       -0.741721   -0.000335   -0.114598
      2          6           0        0.700495    0.000323    0.013571
      3          1           0        1.141775   -0.873173   -0.478535
      4          1           0       -1.151157   -0.838670    0.292191
      5          1           0       -1.153672    0.829147    0.307752
      6          1           0        1.037559   -0.009203    1.068280
      7          1           0        1.114576    0.892305   -0.468929
 ---------------------------------------------------------------------
 Rotational constants (GHZ):         103.0417129          23.1376045          22.0853160
 Standard basis: 6-31G(d) (6D, 7F)
 There are    40 symmetry adapted cartesian basis functions of A   symmetry.
 There are    40 symmetry adapted basis functions of A   symmetry.
    40 basis functions,    76 primitive gaussians,    40 cartesian basis functions
     9 alpha electrons        9 beta electrons
       nuclear repulsion energy        42.0895426112 Hartrees.
 NAtoms=    7 NActive=    7 NUniq=    7 SFac= 1.00D+00 NAtFMM=   60 NAOKFM=F Big=F
 Integral buffers will be    131072 words long.
 Raffenetti 2 integral format.
 Two-electron integral symmetry is turned on.
 One-electron integrals computed using PRISM.
 NBasis=    40 RedAO= T EigKep=  9.08D-03  NBF=    40
 NBsUse=    40 1.00D-06 EigRej= -1.00D+00 NBFU=    40
 ExpMin= 1.61D-01 ExpMax= 4.17D+03 ExpMxC= 6.27D+02 IAcc=3 IRadAn=         5 AccDes= 0.00D+00
 Harris functional with IExCor= 4538 and IRadAn=       5 diagonalized for initial guess.
 HarFok:  IExCor= 4538 AccDes= 0.00D+00 IRadAn=         5 IDoV= 1 UseB2=F ITyADJ=14
 ICtDFT=  3500011 ScaDFX=  1.000000  1.000000  1.000000  1.000000
 FoFCou: FMM=F IPFlag=           0 FMFlag=      100000 FMFlg1=           0
         NFxFlg=           0 DoJE=T BraDBF=F KetDBF=T FulRan=T
         wScrn=  0.000000 ICntrl=       500 IOpCl=  0 I1Cent=   200000004 NGrid=           0
         NMat0=    1 NMatS0=      1 NMatT0=    0 NMatD0=    1 NMtDS0=    0 NMtDT0=    0
 Petite list used in FoFCou.
 Keep R1 ints in memory in canonical form, NReq=2399831.
 Requested convergence on RMS density matrix=1.00D-08 within 128 cycles.
 Requested convergence on MAX density matrix=1.00D-06.
 Requested convergence on             energy=1.00D-06.
 No special actions if energy rises.
 Integral accuracy reduced to 1.0D-05 until final iterations.
 Initial convergence to 1.0D-05 achieved.  Increase integral accuracy.
 SCF Done:  E(RwB97X) =  -95.8221906682     A.U. after   14 cycles
            NFock= 14  Conv=0.17D-08     -V/T= 2.0099

 **********************************************************************

            Population analysis using the SCF density.

 **********************************************************************

 Orbital symmetries:
       Occupied  (A) (A) (A) (A) (A) (A) (A) (A) (A)
       Virtual   (A) (A) (A) (A) (A) (A) (A) (A) (A) (A) (A) (A)
                 (A) (A) (A) (A) (A) (A) (A) (A) (A) (A) (A) (A)
                 (A) (A) (A) (A) (A) (A) (A)
 The electronic state is 1-A.
 Alpha  occ. eigenvalues --  -14.38074 -10.27922  -0.99569  -0.77567  -0.59947
 Alpha  occ. eigenvalues --   -0.53867  -0.50784  -0.46745  -0.32274
 Alpha virt. eigenvalues --    0.18575   0.24151   0.25404   0.27772   0.29099
 Alpha virt. eigenvalues --    0.34625   0.66204   0.67263   0.69874   0.85011
 Alpha virt. eigenvalues --    0.87343   0.90093   0.97815   1.03266   1.04344
 Alpha virt. eigenvalues --    1.05186   1.08759   1.15999   1.48081   1.63712
 Alpha virt. eigenvalues --    1.65051   2.04331   2.13941   2.15650   2.32544
 Alpha virt. eigenvalues --    2.43686   2.47237   2.56484   2.77234   3.89043
 Alpha virt. eigenvalues --    4.37242
          Condensed to atoms (all electrons):
               1          2          3          4          5          6
     1  N    6.893223   0.310582  -0.035711   0.332211   0.332338  -0.054491
     2  C    0.310582   4.923387   0.391173  -0.037742  -0.037251   0.386640
     3  H   -0.035711   0.391173   0.544652  -0.003429   0.004735  -0.040172
     4  H    0.332211  -0.037742  -0.003429   0.427750  -0.029026  -0.002950
     5  H    0.332338  -0.037251   0.004735  -0.029026   0.426926  -0.002994
     6  H   -0.054491   0.386640  -0.040172  -0.002950  -0.002994   0.625814
     7  H   -0.037723   0.391699  -0.023884   0.004901  -0.003572  -0.038529
               7
     1  N   -0.037723
     2  C    0.391699
     3  H   -0.023884
     4  H    0.004901
     5  H   -0.003572
     6  H   -0.038529
     7  H    0.544634
 Mulliken charges:
               1
     1  N   -0.740430
     2  C   -0.328489
     3  H    0.162635
     4  H    0.308285
     5  H    0.308844
     6  H    0.126683
     7  H    0.162472
 Sum of Mulliken charges =  -0.00000
 Mulliken charges with hydrogens summed into heavy atoms:
               1
     1  N   -0.123301
     2  C    0.123301
 Electronic spatial extent (au):  <R**2>=             94.3150
 Charge=             -0.0000 electrons
 Dipole moment (field-independent basis, Debye):
    X=              0.1359    Y=             -0.0122    Z=              1.3541  Tot=              1.3609
 Quadrupole moment (field-independent basis, Debye-Ang):
   XX=            -13.4478   YY=            -12.2342   ZZ=            -15.2619
   XY=             -0.0086   XZ=             -2.0794   YZ=              0.0113
 Traceless Quadrupole moment (field-independent basis, Debye-Ang):
   XX=              0.2002   YY=              1.4137   ZZ=             -1.6139
   XY=             -0.0086   XZ=             -2.0794   YZ=              0.0113
 Octapole moment (field-independent basis, Debye-Ang**2):
  XXX=             -3.3221  YYY=             -0.0069  ZZZ=              1.5058  XYY=             -2.1884
  XXY=             -0.0548  XXZ=              1.9001  XZZ=              0.4152  YZZ=             -0.0022
  YYZ=              0.3154  XYZ=             -0.0281
 Hexadecapole moment (field-independent basis, Debye-Ang**3):
 XXXX=            -72.1399 YYYY=            -22.4291 ZZZZ=            -23.3630 XXXY=             -0.0756
 XXXZ=             -3.8754 YYYX=              0.0415 YYYZ=             -0.0032 ZZZX=             -1.5710
 ZZZY=              0.0091 XXYY=            -13.4812 XXZZ=            -16.8278 YYZZ=             -7.6594
 XXYZ=              0.0452 YYXZ=             -1.8800 ZZXY=             -0.0266
 N-N= 4.208954261125D+01 E-N=-3.066117474595D+02  KE= 9.487858241944D+01
 1\1\GINC-NODE91\SP\RwB97X\6-31G(d)\C1H5N1\YANZ\05-Jun-2019\0\\# 6-31g(
 d) wb97x\\tmpdir/M2_conf_2_29.gjf\\0,1\N,0,0.,0.,0.\C,0,1.4479,0.,0.\H
 ,0,1.84349,0.,1.02147\H,0,-0.3722,0.81183,0.48818\H,0,-0.37257,-0.0388
 4,-0.94647\H,0,1.877,0.87808,-0.52054\H,0,1.81805,-0.90448,-0.49478\\V
 ersion=ES64L-G16RevA.03\State=1-A\HF=-95.8221907\RMSD=1.665e-09\Dipole
 =0.1004008,0.4523373,-0.2683305\Quadrupole=-0.134354,-0.3970476,0.5314
 016,-1.4006183,0.854392,0.8675338\PG=C01 [X(C1H5N1)]\\@


 Everywhere is walking distance if you have the time.
                                    -- Steven Wright
 Job cpu time:       0 days  0 hours  0 minutes 10.5 seconds.
 Elapsed time:       0 days  0 hours  0 minutes  5.4 seconds.
 File lengths (MBytes):  RWF=      6 Int=      0 D2E=      0 Chk=      1 Scr=      1
 Normal termination of Gaussian 16 at Wed Jun  5 17:03:47 2019.
