 Entering Gaussian System, Link 0=g16
 Initial command:
 /share/apps/gaussian/g16/l1.exe "/tmp/55477.mgr/Gau-322157.inp" -scrdir="/tmp/55477.mgr/"
 Entering Link 1 = /share/apps/gaussian/g16/l1.exe PID=    322158.
  
 Copyright (c) 1988,1990,1992,1993,1995,1998,2003,2009,2016,
            Gaussian, Inc.  All Rights Reserved.
  
 This is part of the Gaussian(R) 16 program.  It is based on
 the Gaussian(R) 09 system (copyright 2009, Gaussian, Inc.),
 the Gaussian(R) 03 system (copyright 2003, Gaussian, Inc.),
 the Gaussian(R) 98 system (copyright 1998, Gaussian, Inc.),
 the Gaussian(R) 94 system (copyright 1995, Gaussian, Inc.),
 the Gaussian 92(TM) system (copyright 1992, Gaussian, Inc.),
 the Gaussian 90(TM) system (copyright 1990, Gaussian, Inc.),
 the Gaussian 88(TM) system (copyright 1988, Gaussian, Inc.),
 the Gaussian 86(TM) system (copyright 1986, Carnegie Mellon
 University), and the Gaussian 82(TM) system (copyright 1983,
 Carnegie Mellon University). Gaussian is a federally registered
 trademark of Gaussian, Inc.
  
 This software contains proprietary and confidential information,
 including trade secrets, belonging to Gaussian, Inc.
  
 This software is provided under written license and may be
 used, copied, transmitted, or stored only in accord with that
 written license.
  
 The following legend is applicable only to US Government
 contracts under FAR:
  
                    RESTRICTED RIGHTS LEGEND
  
 Use, reproduction and disclosure by the US Government is
 subject to restrictions as set forth in subparagraphs (a)
 and (c) of the Commercial Computer Software - Restricted
 Rights clause in FAR 52.227-19.
  
 Gaussian, Inc.
 340 Quinnipiac St., Bldg. 40, Wallingford CT 06492
  
  
 ---------------------------------------------------------------
 Warning -- This program may not be used in any manner that
 competes with the business of Gaussian, Inc. or will provide
 assistance to any competitor of Gaussian, Inc.  The licensee
 of this program is prohibited from giving any competitor of
 Gaussian, Inc. access to this program.  By using this program,
 the user acknowledges that Gaussian, Inc. is engaged in the
 business of creating and licensing software in the field of
 computational chemistry and represents and warrants to the
 licensee that it is not a competitor of Gaussian, Inc. and that
 it will not use this program in any manner prohibited above.
 ---------------------------------------------------------------
  

 Cite this work as:
 Gaussian 16, Revision A.03,
 M. J. Frisch, G. W. Trucks, H. B. Schlegel, G. E. Scuseria, 
 M. A. Robb, J. R. Cheeseman, G. Scalmani, V. Barone, 
 G. A. Petersson, H. Nakatsuji, X. Li, M. Caricato, A. V. Marenich, 
 J. Bloino, B. G. Janesko, R. Gomperts, B. Mennucci, H. P. Hratchian, 
 J. V. Ortiz, A. F. Izmaylov, J. L. Sonnenberg, D. Williams-Young, 
 F. Ding, F. Lipparini, F. Egidi, J. Goings, B. Peng, A. Petrone, 
 T. Henderson, D. Ranasinghe, V. G. Zakrzewski, J. Gao, N. Rega, 
 G. Zheng, W. Liang, M. Hada, M. Ehara, K. Toyota, R. Fukuda, 
 J. Hasegawa, M. Ishida, T. Nakajima, Y. Honda, O. Kitao, H. Nakai, 
 T. Vreven, K. Throssell, J. A. Montgomery, Jr., J. E. Peralta, 
 F. Ogliaro, M. J. Bearpark, J. J. Heyd, E. N. Brothers, K. N. Kudin, 
 V. N. Staroverov, T. A. Keith, R. Kobayashi, J. Normand, 
 K. Raghavachari, A. P. Rendell, J. C. Burant, S. S. Iyengar, 
 J. Tomasi, M. Cossi, J. M. Millam, M. Klene, C. Adamo, R. Cammi, 
 J. W. Ochterski, R. L. Martin, K. Morokuma, O. Farkas, 
 J. B. Foresman, and D. J. Fox, Gaussian, Inc., Wallingford CT, 2016.
 
 ******************************************
 Gaussian 16:  ES64L-G16RevA.03 25-Dec-2016
                 5-Jun-2019 
 ******************************************
 %nprocshared=2
 Will use up to    2 processors via shared memory.
 %mem=2GB
 ----------------
 # 6-31g(d) wb97x
 ----------------
 1/38=1,172=1/1;
 2/12=2,17=6,18=5,40=1/2;
 3/5=1,6=6,7=1,11=2,25=1,30=1,74=-57/1,2,3;
 4//1;
 5/5=2,38=5/2;
 6/7=2,8=2,9=2,10=2,28=1/1;
 99/5=1,9=1/99;
 ------------------------
 tmpdir/M2_conf_0_166.gjf
 ------------------------
 Symbolic Z-matrix:
 Charge =  0 Multiplicity = 1
 N                     0.        0.        0. 
 C                     1.3401    0.        0. 
 C                     2.05442   0.        1.19591 
 O                    -0.52897   0.00756   1.03189 
 H                     1.81509  -0.00824  -0.964 
 H                     1.50993   0.014     2.04218 
 H                     3.13691  -0.03624   1.2254 
 
                          Input orientation:                          
 ---------------------------------------------------------------------
 Center     Atomic      Atomic             Coordinates (Angstroms)
 Number     Number       Type             X           Y           Z
 ---------------------------------------------------------------------
      1          7           0        0.000000    0.000000    0.000000
      2          6           0        1.340100    0.000000    0.000000
      3          6           0        2.054420    0.000000    1.195910
      4          8           0       -0.528970    0.007560    1.031890
      5          1           0        1.815090   -0.008240   -0.964000
      6          1           0        1.509930    0.014000    2.042180
      7          1           0        3.136910   -0.036240    1.225400
 ---------------------------------------------------------------------
                    Distance matrix (angstroms):
                    1          2          3          4          5
     1  N    0.000000
     2  C    1.340100   0.000000
     3  C    2.377150   1.393002   0.000000
     4  O    1.159596   2.135012   2.588603   0.000000
     5  H    2.055217   1.074700   2.173145   3.078708   0.000000
     6  H    2.539800   2.049277   1.006399   2.275487   3.021711
     7  H    3.367955   2.175188   1.083498   3.671245   2.557629
                    6          7
     6  H    0.000000
     7  H    1.821186   0.000000
 Stoichiometry    C2H3NO
 Framework group  C1[X(C2H3NO)]
 Deg. of freedom    15
 Full point group                 C1      NOp   1
 Largest Abelian subgroup         C1      NOp   1
 Largest concise Abelian subgroup C1      NOp   1
                         Standard orientation:                         
 ---------------------------------------------------------------------
 Center     Atomic      Atomic             Coordinates (Angstroms)
 Number     Number       Type             X           Y           Z
 ---------------------------------------------------------------------
      1          7           0        0.804485    0.519249    0.002384
      2          6           0       -0.529904    0.642677   -0.003814
      3          6           0       -1.351349   -0.482348   -0.002870
      4          8           0        1.236175   -0.556997    0.000936
      5          1           0       -0.914101    1.646353   -0.001196
      6          1           0       -0.887078   -1.375220   -0.011345
      7          1           0       -2.432097   -0.411867    0.028468
 ---------------------------------------------------------------------
 Rotational constants (GHZ):          23.7442381           7.6469640           5.7843138
 Standard basis: 6-31G(d) (6D, 7F)
 There are    66 symmetry adapted cartesian basis functions of A   symmetry.
 There are    66 symmetry adapted basis functions of A   symmetry.
    66 basis functions,   124 primitive gaussians,    66 cartesian basis functions
    15 alpha electrons       15 beta electrons
       nuclear repulsion energy       109.8068762042 Hartrees.
 NAtoms=    7 NActive=    7 NUniq=    7 SFac= 1.00D+00 NAtFMM=   60 NAOKFM=F Big=F
 Integral buffers will be    131072 words long.
 Raffenetti 2 integral format.
 Two-electron integral symmetry is turned on.
 One-electron integrals computed using PRISM.
 NBasis=    66 RedAO= T EigKep=  2.55D-03  NBF=    66
 NBsUse=    66 1.00D-06 EigRej= -1.00D+00 NBFU=    66
 ExpMin= 1.61D-01 ExpMax= 5.48D+03 ExpMxC= 8.25D+02 IAcc=3 IRadAn=         5 AccDes= 0.00D+00
 Harris functional with IExCor= 4538 and IRadAn=       5 diagonalized for initial guess.
 HarFok:  IExCor= 4538 AccDes= 0.00D+00 IRadAn=         5 IDoV= 1 UseB2=F ITyADJ=14
 ICtDFT=  3500011 ScaDFX=  1.000000  1.000000  1.000000  1.000000
 FoFCou: FMM=F IPFlag=           0 FMFlag=      100000 FMFlg1=           0
         NFxFlg=           0 DoJE=T BraDBF=F KetDBF=T FulRan=T
         wScrn=  0.000000 ICntrl=       500 IOpCl=  0 I1Cent=   200000004 NGrid=           0
         NMat0=    1 NMatS0=      1 NMatT0=    0 NMatD0=    1 NMtDS0=    0 NMtDT0=    0
 Petite list used in FoFCou.
 Keep R1 ints in memory in canonical form, NReq=6667331.
 Requested convergence on RMS density matrix=1.00D-08 within 128 cycles.
 Requested convergence on MAX density matrix=1.00D-06.
 Requested convergence on             energy=1.00D-06.
 No special actions if energy rises.
 Integral accuracy reduced to 1.0D-05 until final iterations.
 Initial convergence to 1.0D-05 achieved.  Increase integral accuracy.
 SCF Done:  E(RwB97X) =  -207.792549641     A.U. after   21 cycles
            NFock= 21  Conv=0.73D-08     -V/T= 2.0066

 **********************************************************************

            Population analysis using the SCF density.

 **********************************************************************

 Orbital symmetries:
       Occupied  (A) (A) (A) (A) (A) (A) (A) (A) (A) (A) (A) (A)
                 (A) (A) (A)
       Virtual   (A) (A) (A) (A) (A) (A) (A) (A) (A) (A) (A) (A)
                 (A) (A) (A) (A) (A) (A) (A) (A) (A) (A) (A) (A)
                 (A) (A) (A) (A) (A) (A) (A) (A) (A) (A) (A) (A)
                 (A) (A) (A) (A) (A) (A) (A) (A) (A) (A) (A) (A)
                 (A) (A) (A)
 The electronic state is 1-A.
 Alpha  occ. eigenvalues --  -19.26038 -14.50563 -10.31181 -10.30921  -1.31853
 Alpha  occ. eigenvalues --   -0.96758  -0.84367  -0.68339  -0.64607  -0.59975
 Alpha  occ. eigenvalues --   -0.58794  -0.53868  -0.49964  -0.38841  -0.31074
 Alpha virt. eigenvalues --   -0.01644   0.15029   0.21353   0.24632   0.28520
 Alpha virt. eigenvalues --    0.37453   0.38836   0.48374   0.62944   0.64586
 Alpha virt. eigenvalues --    0.69805   0.71397   0.72894   0.76584   0.81047
 Alpha virt. eigenvalues --    0.84108   0.88141   0.95244   0.96771   0.99501
 Alpha virt. eigenvalues --    1.06537   1.09005   1.14616   1.21608   1.24609
 Alpha virt. eigenvalues --    1.37393   1.43368   1.50675   1.57362   1.68000
 Alpha virt. eigenvalues --    1.74175   1.83551   1.91452   1.93442   2.04111
 Alpha virt. eigenvalues --    2.08960   2.15364   2.32639   2.35837   2.50149
 Alpha virt. eigenvalues --    2.51146   2.63960   2.70420   2.78739   2.90208
 Alpha virt. eigenvalues --    3.00599   3.20491   3.79984   3.94834   4.19472
 Alpha virt. eigenvalues --    4.43152
          Condensed to atoms (all electrons):
               1          2          3          4          5          6
     1  N    6.453558   0.324649  -0.042789   0.272577  -0.040184  -0.018345
     2  C    0.324649   4.968350   0.549041  -0.110863   0.385529  -0.043275
     3  C   -0.042789   0.549041   5.104104  -0.012133  -0.042520   0.378253
     4  O    0.272577  -0.110863  -0.012133   8.103475   0.004606   0.032106
     5  H   -0.040184   0.385529  -0.042520   0.004606   0.502782   0.003560
     6  H   -0.018345  -0.043275   0.378253   0.032106   0.003560   0.462836
     7  H    0.002372  -0.022653   0.370171   0.000476  -0.001483  -0.026441
               7
     1  N    0.002372
     2  C   -0.022653
     3  C    0.370171
     4  O    0.000476
     5  H   -0.001483
     6  H   -0.026441
     7  H    0.479585
 Mulliken charges:
               1
     1  N    0.048162
     2  C   -0.050778
     3  C   -0.304127
     4  O   -0.290244
     5  H    0.187709
     6  H    0.211306
     7  H    0.197972
 Sum of Mulliken charges =  -0.00000
 Mulliken charges with hydrogens summed into heavy atoms:
               1
     1  N    0.048162
     2  C    0.136931
     3  C    0.105150
     4  O   -0.290244
 Electronic spatial extent (au):  <R**2>=            228.8651
 Charge=             -0.0000 electrons
 Dipole moment (field-independent basis, Debye):
    X=             -3.0066    Y=              0.0579    Z=              0.0039  Tot=              3.0071
 Quadrupole moment (field-independent basis, Debye-Ang):
   XX=            -22.9153   YY=            -22.0195   ZZ=            -22.9738
   XY=              0.1866   XZ=             -0.0747   YZ=             -0.0121
 Traceless Quadrupole moment (field-independent basis, Debye-Ang):
   XX=             -0.2791   YY=              0.6167   ZZ=             -0.3376
   XY=              0.1866   XZ=             -0.0747   YZ=             -0.0121
 Octapole moment (field-independent basis, Debye-Ang**2):
  XXX=             -5.7878  YYY=             -1.5386  ZZZ=              0.0275  XYY=             -2.1059
  XXY=             -1.6574  XXZ=              0.1359  XZZ=              3.8176  YZZ=             -0.9018
  YYZ=             -0.0249  XYZ=             -0.0056
 Hexadecapole moment (field-independent basis, Debye-Ang**3):
 XXXX=           -172.2591 YYYY=            -72.5798 ZZZZ=            -20.5125 XXXY=             -0.0112
 XXXZ=             -0.5180 YYYX=             -5.6646 YYYZ=             -0.0055 ZZZX=             -0.0492
 ZZZY=             -0.0060 XXYY=            -45.1621 XXZZ=            -35.0059 YYZZ=            -16.6333
 XXYZ=             -0.0584 YYXZ=             -0.0192 ZZXY=             -0.7490
 N-N= 1.098068762042D+02 E-N=-7.052536069662D+02  KE= 2.064307504258D+02
 1\1\GINC-NODE91\SP\RwB97X\6-31G(d)\C2H3N1O1\YANZ\05-Jun-2019\0\\# 6-31
 g(d) wb97x\\tmpdir/M2_conf_0_166.gjf\\0,1\N,0,0.,0.,0.\C,0,1.3401,0.,0
 .\C,0,2.05442,0.,1.19591\O,0,-0.52897,0.00756,1.03189\H,0,1.81509,-0.0
 0824,-0.964\H,0,1.50993,0.014,2.04218\H,0,3.13691,-0.03624,1.2254\\Ver
 sion=ES64L-G16RevA.03\State=1-A\HF=-207.7925496\RMSD=7.289e-09\Dipole=
 1.1799188,-0.0066764,0.0862907\Quadrupole=-0.2278246,-0.2505735,0.4783
 98,-0.054325,0.0754575,-0.0118225\PG=C01 [X(C2H3N1O1)]\\@


 THE MOLECULE ALSO HAS A BODY.  WHEN THIS BODY IS HIT, THE MOLECULE
 FEELS HURT ALL OVER -- A. KITAIGORODSKI
 Job cpu time:       0 days  0 hours  0 minutes 21.1 seconds.
 Elapsed time:       0 days  0 hours  0 minutes 10.8 seconds.
 File lengths (MBytes):  RWF=      6 Int=      0 D2E=      0 Chk=      1 Scr=      1
 Normal termination of Gaussian 16 at Wed Jun  5 17:00:42 2019.
