 Entering Gaussian System, Link 0=g16
 Initial command:
 /share/apps/gaussian/g16/l1.exe "/tmp/55477.mgr/Gau-326124.inp" -scrdir="/tmp/55477.mgr/"
 Entering Link 1 = /share/apps/gaussian/g16/l1.exe PID=    326125.
  
 Copyright (c) 1988,1990,1992,1993,1995,1998,2003,2009,2016,
            Gaussian, Inc.  All Rights Reserved.
  
 This is part of the Gaussian(R) 16 program.  It is based on
 the Gaussian(R) 09 system (copyright 2009, Gaussian, Inc.),
 the Gaussian(R) 03 system (copyright 2003, Gaussian, Inc.),
 the Gaussian(R) 98 system (copyright 1998, Gaussian, Inc.),
 the Gaussian(R) 94 system (copyright 1995, Gaussian, Inc.),
 the Gaussian 92(TM) system (copyright 1992, Gaussian, Inc.),
 the Gaussian 90(TM) system (copyright 1990, Gaussian, Inc.),
 the Gaussian 88(TM) system (copyright 1988, Gaussian, Inc.),
 the Gaussian 86(TM) system (copyright 1986, Carnegie Mellon
 University), and the Gaussian 82(TM) system (copyright 1983,
 Carnegie Mellon University). Gaussian is a federally registered
 trademark of Gaussian, Inc.
  
 This software contains proprietary and confidential information,
 including trade secrets, belonging to Gaussian, Inc.
  
 This software is provided under written license and may be
 used, copied, transmitted, or stored only in accord with that
 written license.
  
 The following legend is applicable only to US Government
 contracts under FAR:
  
                    RESTRICTED RIGHTS LEGEND
  
 Use, reproduction and disclosure by the US Government is
 subject to restrictions as set forth in subparagraphs (a)
 and (c) of the Commercial Computer Software - Restricted
 Rights clause in FAR 52.227-19.
  
 Gaussian, Inc.
 340 Quinnipiac St., Bldg. 40, Wallingford CT 06492
  
  
 ---------------------------------------------------------------
 Warning -- This program may not be used in any manner that
 competes with the business of Gaussian, Inc. or will provide
 assistance to any competitor of Gaussian, Inc.  The licensee
 of this program is prohibited from giving any competitor of
 Gaussian, Inc. access to this program.  By using this program,
 the user acknowledges that Gaussian, Inc. is engaged in the
 business of creating and licensing software in the field of
 computational chemistry and represents and warrants to the
 licensee that it is not a competitor of Gaussian, Inc. and that
 it will not use this program in any manner prohibited above.
 ---------------------------------------------------------------
  

 Cite this work as:
 Gaussian 16, Revision A.03,
 M. J. Frisch, G. W. Trucks, H. B. Schlegel, G. E. Scuseria, 
 M. A. Robb, J. R. Cheeseman, G. Scalmani, V. Barone, 
 G. A. Petersson, H. Nakatsuji, X. Li, M. Caricato, A. V. Marenich, 
 J. Bloino, B. G. Janesko, R. Gomperts, B. Mennucci, H. P. Hratchian, 
 J. V. Ortiz, A. F. Izmaylov, J. L. Sonnenberg, D. Williams-Young, 
 F. Ding, F. Lipparini, F. Egidi, J. Goings, B. Peng, A. Petrone, 
 T. Henderson, D. Ranasinghe, V. G. Zakrzewski, J. Gao, N. Rega, 
 G. Zheng, W. Liang, M. Hada, M. Ehara, K. Toyota, R. Fukuda, 
 J. Hasegawa, M. Ishida, T. Nakajima, Y. Honda, O. Kitao, H. Nakai, 
 T. Vreven, K. Throssell, J. A. Montgomery, Jr., J. E. Peralta, 
 F. Ogliaro, M. J. Bearpark, J. J. Heyd, E. N. Brothers, K. N. Kudin, 
 V. N. Staroverov, T. A. Keith, R. Kobayashi, J. Normand, 
 K. Raghavachari, A. P. Rendell, J. C. Burant, S. S. Iyengar, 
 J. Tomasi, M. Cossi, J. M. Millam, M. Klene, C. Adamo, R. Cammi, 
 J. W. Ochterski, R. L. Martin, K. Morokuma, O. Farkas, 
 J. B. Foresman, and D. J. Fox, Gaussian, Inc., Wallingford CT, 2016.
 
 ******************************************
 Gaussian 16:  ES64L-G16RevA.03 25-Dec-2016
                 5-Jun-2019 
 ******************************************
 %nprocshared=2
 Will use up to    2 processors via shared memory.
 %mem=2GB
 ----------------
 # 6-31g(d) wb97x
 ----------------
 1/38=1,172=1/1;
 2/12=2,17=6,18=5,40=1/2;
 3/5=1,6=6,7=1,11=2,25=1,30=1,74=-57/1,2,3;
 4//1;
 5/5=2,38=5/2;
 6/7=2,8=2,9=2,10=2,28=1/1;
 99/5=1,9=1/99;
 -----------------------
 tmpdir/M2_conf_2_95.gjf
 -----------------------
 Symbolic Z-matrix:
 Charge =  0 Multiplicity = 1
 C                     0.        0.        0. 
 C                     1.5026    0.        0. 
 O                     2.13894   0.        1.04289 
 H                    -0.55891  -0.37277  -0.7559 
 O                    -0.56415   0.45877   0.99106 
 H                     1.95589   0.01415  -0.97642 
 
                          Input orientation:                          
 ---------------------------------------------------------------------
 Center     Atomic      Atomic             Coordinates (Angstroms)
 Number     Number       Type             X           Y           Z
 ---------------------------------------------------------------------
      1          6           0        0.000000    0.000000    0.000000
      2          6           0        1.502600    0.000000    0.000000
      3          8           0        2.138940    0.000000    1.042890
      4          1           0       -0.558910   -0.372770   -0.755900
      5          8           0       -0.564150    0.458770    0.991060
      6          1           0        1.955890    0.014150   -0.976420
 ---------------------------------------------------------------------
                    Distance matrix (angstroms):
                    1          2          3          4          5
     1  C    0.000000
     2  C    1.502600   0.000000
     3  O    2.379639   1.221699   0.000000
     4  H    1.011298   2.227143   3.263893   0.000000
     5  O    1.229201   2.337547   2.742235   1.934775   0.000000
     6  H    2.186116   1.076600   2.027639   2.553929   3.227889
                    6
     6  H    0.000000
 Stoichiometry    C2H2O2
 Framework group  C1[X(C2H2O2)]
 Deg. of freedom    12
 Full point group                 C1      NOp   1
 Largest Abelian subgroup         C1      NOp   1
 Largest concise Abelian subgroup C1      NOp   1
                         Standard orientation:                         
 ---------------------------------------------------------------------
 Center     Atomic      Atomic             Coordinates (Angstroms)
 Number     Number       Type             X           Y           Z
 ---------------------------------------------------------------------
      1          6           0       -0.757538    0.503702   -0.088426
      2          6           0        0.735288    0.490637    0.082182
      3          8           0        1.384567   -0.532556   -0.072937
      4          1           0       -1.283183    1.327610   -0.348417
      5          8           0       -1.353487   -0.558700    0.076142
      6          1           0        1.168045    1.436402    0.360244
 ---------------------------------------------------------------------
 Rotational constants (GHZ):          25.5434442           6.5652166           5.2879665
 Standard basis: 6-31G(d) (6D, 7F)
 There are    64 symmetry adapted cartesian basis functions of A   symmetry.
 There are    64 symmetry adapted basis functions of A   symmetry.
    64 basis functions,   120 primitive gaussians,    64 cartesian basis functions
    15 alpha electrons       15 beta electrons
       nuclear repulsion energy       104.0827626686 Hartrees.
 NAtoms=    6 NActive=    6 NUniq=    6 SFac= 1.00D+00 NAtFMM=   60 NAOKFM=F Big=F
 Integral buffers will be    131072 words long.
 Raffenetti 2 integral format.
 Two-electron integral symmetry is turned on.
 One-electron integrals computed using PRISM.
 NBasis=    64 RedAO= T EigKep=  3.76D-03  NBF=    64
 NBsUse=    64 1.00D-06 EigRej= -1.00D+00 NBFU=    64
 ExpMin= 1.61D-01 ExpMax= 5.48D+03 ExpMxC= 8.25D+02 IAcc=3 IRadAn=         5 AccDes= 0.00D+00
 Harris functional with IExCor= 4538 and IRadAn=       5 diagonalized for initial guess.
 HarFok:  IExCor= 4538 AccDes= 0.00D+00 IRadAn=         5 IDoV= 1 UseB2=F ITyADJ=14
 ICtDFT=  3500011 ScaDFX=  1.000000  1.000000  1.000000  1.000000
 FoFCou: FMM=F IPFlag=           0 FMFlag=      100000 FMFlg1=           0
         NFxFlg=           0 DoJE=T BraDBF=F KetDBF=T FulRan=T
         wScrn=  0.000000 ICntrl=       500 IOpCl=  0 I1Cent=   200000004 NGrid=           0
         NMat0=    1 NMatS0=      1 NMatT0=    0 NMatD0=    1 NMtDS0=    0 NMtDT0=    0
 Petite list used in FoFCou.
 Keep R1 ints in memory in canonical form, NReq=6104720.
 Requested convergence on RMS density matrix=1.00D-08 within 128 cycles.
 Requested convergence on MAX density matrix=1.00D-06.
 Requested convergence on             energy=1.00D-06.
 No special actions if energy rises.
 Integral accuracy reduced to 1.0D-05 until final iterations.
 Initial convergence to 1.0D-05 achieved.  Increase integral accuracy.
 SCF Done:  E(RwB97X) =  -227.740829211     A.U. after   16 cycles
            NFock= 16  Conv=0.78D-08     -V/T= 2.0082

 **********************************************************************

            Population analysis using the SCF density.

 **********************************************************************

 Orbital symmetries:
       Occupied  (A) (A) (A) (A) (A) (A) (A) (A) (A) (A) (A) (A)
                 (A) (A) (A)
       Virtual   (A) (A) (A) (A) (A) (A) (A) (A) (A) (A) (A) (A)
                 (A) (A) (A) (A) (A) (A) (A) (A) (A) (A) (A) (A)
                 (A) (A) (A) (A) (A) (A) (A) (A) (A) (A) (A) (A)
                 (A) (A) (A) (A) (A) (A) (A) (A) (A) (A) (A) (A)
                 (A)
 The electronic state is 1-A.
 Alpha  occ. eigenvalues --  -19.25439 -19.25019 -10.38709 -10.37857  -1.20896
 Alpha  occ. eigenvalues --   -1.17753  -0.85450  -0.71416  -0.65935  -0.57698
 Alpha  occ. eigenvalues --   -0.56650  -0.54056  -0.48618  -0.42024  -0.36890
 Alpha virt. eigenvalues --   -0.01800   0.11283   0.22128   0.23703   0.28858
 Alpha virt. eigenvalues --    0.39280   0.42759   0.60134   0.63731   0.66995
 Alpha virt. eigenvalues --    0.72477   0.75894   0.76949   0.84424   0.94325
 Alpha virt. eigenvalues --    0.94629   0.98938   1.03371   1.05412   1.07999
 Alpha virt. eigenvalues --    1.12714   1.15232   1.21617   1.45391   1.47848
 Alpha virt. eigenvalues --    1.55984   1.62927   1.64753   1.74878   1.81796
 Alpha virt. eigenvalues --    1.88544   1.94911   1.98358   2.09949   2.14002
 Alpha virt. eigenvalues --    2.17455   2.29787   2.38040   2.57754   2.61408
 Alpha virt. eigenvalues --    2.70501   2.72947   2.98653   3.00899   3.15209
 Alpha virt. eigenvalues --    3.76203   4.02150   4.11235   4.44288
          Condensed to atoms (all electrons):
               1          2          3          4          5          6
     1  C    4.853148   0.254968  -0.065078   0.351088   0.528819  -0.089015
     2  C    0.254968   4.822518   0.550818  -0.077528  -0.070043   0.335138
     3  O   -0.065078   0.550818   7.891171   0.002770   0.001788  -0.046423
     4  H    0.351088  -0.077528   0.002770   0.588967  -0.046976   0.010466
     5  O    0.528819  -0.070043   0.001788  -0.046976   7.919450   0.003969
     6  H   -0.089015   0.335138  -0.046423   0.010466   0.003969   0.635225
 Mulliken charges:
               1
     1  C    0.166070
     2  C    0.184129
     3  O   -0.335045
     4  H    0.171213
     5  O   -0.337006
     6  H    0.150640
 Sum of Mulliken charges =  -0.00000
 Mulliken charges with hydrogens summed into heavy atoms:
               1
     1  C    0.337283
     2  C    0.334769
     3  O   -0.335045
     5  O   -0.337006
 Electronic spatial extent (au):  <R**2>=            234.7558
 Charge=             -0.0000 electrons
 Dipole moment (field-independent basis, Debye):
    X=             -0.1725    Y=              3.7400    Z=             -0.0451  Tot=              3.7443
 Quadrupole moment (field-independent basis, Debye-Ang):
   XX=            -25.7123   YY=            -21.0338   ZZ=            -20.7997
   XY=             -0.3308   XZ=              0.7267   YZ=             -0.0260
 Traceless Quadrupole moment (field-independent basis, Debye-Ang):
   XX=             -3.1971   YY=              1.4815   ZZ=              1.7156
   XY=             -0.3308   XZ=              0.7267   YZ=             -0.0260
 Octapole moment (field-independent basis, Debye-Ang**2):
  XXX=             -0.8953  YYY=             -0.2987  ZZZ=             -0.0914  XYY=             -0.2115
  XXY=              4.6086  XXZ=             -0.2307  XZZ=             -0.0960  YZZ=             -0.9409
  YYZ=             -0.0387  XYZ=              0.2047
 Hexadecapole moment (field-independent basis, Debye-Ang**3):
 XXXX=           -197.0750 YYYY=            -65.5171 ZZZZ=            -18.5392 XXXY=             -1.4815
 XXXZ=              0.3002 YYYX=             -0.5519 YYYZ=             -0.0418 ZZZX=             -0.6387
 ZZZY=             -0.1522 XXYY=            -40.2859 XXZZ=            -32.5482 YYZZ=            -14.0634
 XXYZ=             -0.2032 YYXZ=              0.8760 ZZXY=             -0.1670
 N-N= 1.040827626686D+02 E-N=-7.422832757953D+02  KE= 2.258924693435D+02
 1\1\GINC-NODE91\SP\RwB97X\6-31G(d)\C2H2O2\YANZ\05-Jun-2019\0\\# 6-31g(
 d) wb97x\\tmpdir/M2_conf_2_95.gjf\\0,1\C,0,0.,0.,0.\C,0,1.5026,0.,0.\O
 ,0,2.13894,0.,1.04289\H,0,-0.55891,-0.37277,-0.7559\O,0,-0.56415,0.458
 77,0.99106\H,0,1.95589,0.01415,-0.97642\\Version=ES64L-G16RevA.03\Stat
 e=1-A\HF=-227.7408292\RMSD=7.846e-09\Dipole=-0.0822521,-0.3309996,-1.4
 330797\Quadrupole=-2.2034003,1.0988337,1.1045667,0.9757675,0.0636604,-
 0.017316\PG=C01 [X(C2H2O2)]\\@


 THE FIRST AND LAST THING REQUIRED OF GENIUS IS THE LOVE OF TRUTH.

                          -- GOETHE
 Job cpu time:       0 days  0 hours  0 minutes 15.0 seconds.
 Elapsed time:       0 days  0 hours  0 minutes  7.6 seconds.
 File lengths (MBytes):  RWF=      6 Int=      0 D2E=      0 Chk=      1 Scr=      1
 Normal termination of Gaussian 16 at Wed Jun  5 17:04:00 2019.
