 Entering Gaussian System, Link 0=g16
 Initial command:
 /share/apps/gaussian/g16/l1.exe "/tmp/55477.mgr/Gau-326449.inp" -scrdir="/tmp/55477.mgr/"
 Entering Link 1 = /share/apps/gaussian/g16/l1.exe PID=    326450.
  
 Copyright (c) 1988,1990,1992,1993,1995,1998,2003,2009,2016,
            Gaussian, Inc.  All Rights Reserved.
  
 This is part of the Gaussian(R) 16 program.  It is based on
 the Gaussian(R) 09 system (copyright 2009, Gaussian, Inc.),
 the Gaussian(R) 03 system (copyright 2003, Gaussian, Inc.),
 the Gaussian(R) 98 system (copyright 1998, Gaussian, Inc.),
 the Gaussian(R) 94 system (copyright 1995, Gaussian, Inc.),
 the Gaussian 92(TM) system (copyright 1992, Gaussian, Inc.),
 the Gaussian 90(TM) system (copyright 1990, Gaussian, Inc.),
 the Gaussian 88(TM) system (copyright 1988, Gaussian, Inc.),
 the Gaussian 86(TM) system (copyright 1986, Carnegie Mellon
 University), and the Gaussian 82(TM) system (copyright 1983,
 Carnegie Mellon University). Gaussian is a federally registered
 trademark of Gaussian, Inc.
  
 This software contains proprietary and confidential information,
 including trade secrets, belonging to Gaussian, Inc.
  
 This software is provided under written license and may be
 used, copied, transmitted, or stored only in accord with that
 written license.
  
 The following legend is applicable only to US Government
 contracts under FAR:
  
                    RESTRICTED RIGHTS LEGEND
  
 Use, reproduction and disclosure by the US Government is
 subject to restrictions as set forth in subparagraphs (a)
 and (c) of the Commercial Computer Software - Restricted
 Rights clause in FAR 52.227-19.
  
 Gaussian, Inc.
 340 Quinnipiac St., Bldg. 40, Wallingford CT 06492
  
  
 ---------------------------------------------------------------
 Warning -- This program may not be used in any manner that
 competes with the business of Gaussian, Inc. or will provide
 assistance to any competitor of Gaussian, Inc.  The licensee
 of this program is prohibited from giving any competitor of
 Gaussian, Inc. access to this program.  By using this program,
 the user acknowledges that Gaussian, Inc. is engaged in the
 business of creating and licensing software in the field of
 computational chemistry and represents and warrants to the
 licensee that it is not a competitor of Gaussian, Inc. and that
 it will not use this program in any manner prohibited above.
 ---------------------------------------------------------------
  

 Cite this work as:
 Gaussian 16, Revision A.03,
 M. J. Frisch, G. W. Trucks, H. B. Schlegel, G. E. Scuseria, 
 M. A. Robb, J. R. Cheeseman, G. Scalmani, V. Barone, 
 G. A. Petersson, H. Nakatsuji, X. Li, M. Caricato, A. V. Marenich, 
 J. Bloino, B. G. Janesko, R. Gomperts, B. Mennucci, H. P. Hratchian, 
 J. V. Ortiz, A. F. Izmaylov, J. L. Sonnenberg, D. Williams-Young, 
 F. Ding, F. Lipparini, F. Egidi, J. Goings, B. Peng, A. Petrone, 
 T. Henderson, D. Ranasinghe, V. G. Zakrzewski, J. Gao, N. Rega, 
 G. Zheng, W. Liang, M. Hada, M. Ehara, K. Toyota, R. Fukuda, 
 J. Hasegawa, M. Ishida, T. Nakajima, Y. Honda, O. Kitao, H. Nakai, 
 T. Vreven, K. Throssell, J. A. Montgomery, Jr., J. E. Peralta, 
 F. Ogliaro, M. J. Bearpark, J. J. Heyd, E. N. Brothers, K. N. Kudin, 
 V. N. Staroverov, T. A. Keith, R. Kobayashi, J. Normand, 
 K. Raghavachari, A. P. Rendell, J. C. Burant, S. S. Iyengar, 
 J. Tomasi, M. Cossi, J. M. Millam, M. Klene, C. Adamo, R. Cammi, 
 J. W. Ochterski, R. L. Martin, K. Morokuma, O. Farkas, 
 J. B. Foresman, and D. J. Fox, Gaussian, Inc., Wallingford CT, 2016.
 
 ******************************************
 Gaussian 16:  ES64L-G16RevA.03 25-Dec-2016
                 5-Jun-2019 
 ******************************************
 %nprocshared=2
 Will use up to    2 processors via shared memory.
 %mem=2GB
 ----------------
 # 6-31g(d) wb97x
 ----------------
 1/38=1,172=1/1;
 2/12=2,17=6,18=5,40=1/2;
 3/5=1,6=6,7=1,11=2,25=1,30=1,74=-57/1,2,3;
 4//1;
 5/5=2,38=5/2;
 6/7=2,8=2,9=2,10=2,28=1/1;
 99/5=1,9=1/99;
 -----------------------
 tmpdir/M2_conf_2_78.gjf
 -----------------------
 Symbolic Z-matrix:
 Charge =  0 Multiplicity = 1
 H                     0.        0.        0. 
 C                     1.0883    0.        0. 
 C                     1.79334   0.        1.20604 
 O                     1.6827    0.04634  -1.07001 
 O                     3.02087   0.05883   1.18111 
 H                     1.31448  -0.02689   2.18229 
 
                          Input orientation:                          
 ---------------------------------------------------------------------
 Center     Atomic      Atomic             Coordinates (Angstroms)
 Number     Number       Type             X           Y           Z
 ---------------------------------------------------------------------
      1          1           0        0.000000    0.000000    0.000000
      2          6           0        1.088300    0.000000    0.000000
      3          6           0        1.793340    0.000000    1.206040
      4          8           0        1.682700    0.046340   -1.070010
      5          8           0        3.020870    0.058830    1.181110
      6          1           0        1.314480   -0.026890    2.182290
 ---------------------------------------------------------------------
                    Distance matrix (angstroms):
                    1          2          3          4          5
     1  H    0.000000
     2  C    1.088300   0.000000
     3  C    2.161157   1.397002   0.000000
     4  O    1.994630   1.224900   2.279209   0.000000
     5  O    3.244093   2.265681   1.229192   2.618854   0.000000
     6  H    2.547738   2.194145   1.087701   3.273897   1.980272
                    6
     6  H    0.000000
 Stoichiometry    C2H2O2
 Framework group  C1[X(C2H2O2)]
 Deg. of freedom    12
 Full point group                 C1      NOp   1
 Largest Abelian subgroup         C1      NOp   1
 Largest concise Abelian subgroup C1      NOp   1
                         Standard orientation:                         
 ---------------------------------------------------------------------
 Center     Atomic      Atomic             Coordinates (Angstroms)
 Number     Number       Type             X           Y           Z
 ---------------------------------------------------------------------
      1          1           0        1.245941    1.441728    0.036338
      2          6           0        0.694567    0.504321   -0.004316
      3          6           0       -0.702427    0.507634   -0.007638
      4          8           0        1.315822   -0.551335   -0.000639
      5          8           0       -1.302992   -0.564783    0.004810
      6          1           0       -1.301431    1.415486    0.002013
 ---------------------------------------------------------------------
 Rotational constants (GHZ):          25.1593973           7.2369424           5.6206019
 Standard basis: 6-31G(d) (6D, 7F)
 There are    64 symmetry adapted cartesian basis functions of A   symmetry.
 There are    64 symmetry adapted basis functions of A   symmetry.
    64 basis functions,   120 primitive gaussians,    64 cartesian basis functions
    15 alpha electrons       15 beta electrons
       nuclear repulsion energy       106.1440349763 Hartrees.
 NAtoms=    6 NActive=    6 NUniq=    6 SFac= 1.00D+00 NAtFMM=   60 NAOKFM=F Big=F
 Integral buffers will be    131072 words long.
 Raffenetti 2 integral format.
 Two-electron integral symmetry is turned on.
 One-electron integrals computed using PRISM.
 NBasis=    64 RedAO= T EigKep=  2.72D-03  NBF=    64
 NBsUse=    64 1.00D-06 EigRej= -1.00D+00 NBFU=    64
 ExpMin= 1.61D-01 ExpMax= 5.48D+03 ExpMxC= 8.25D+02 IAcc=3 IRadAn=         5 AccDes= 0.00D+00
 Harris functional with IExCor= 4538 and IRadAn=       5 diagonalized for initial guess.
 HarFok:  IExCor= 4538 AccDes= 0.00D+00 IRadAn=         5 IDoV= 1 UseB2=F ITyADJ=14
 ICtDFT=  3500011 ScaDFX=  1.000000  1.000000  1.000000  1.000000
 FoFCou: FMM=F IPFlag=           0 FMFlag=      100000 FMFlg1=           0
         NFxFlg=           0 DoJE=T BraDBF=F KetDBF=T FulRan=T
         wScrn=  0.000000 ICntrl=       500 IOpCl=  0 I1Cent=   200000004 NGrid=           0
         NMat0=    1 NMatS0=      1 NMatT0=    0 NMatD0=    1 NMtDS0=    0 NMtDT0=    0
 Petite list used in FoFCou.
 Keep R1 ints in memory in canonical form, NReq=6104720.
 Requested convergence on RMS density matrix=1.00D-08 within 128 cycles.
 Requested convergence on MAX density matrix=1.00D-06.
 Requested convergence on             energy=1.00D-06.
 No special actions if energy rises.
 Integral accuracy reduced to 1.0D-05 until final iterations.
 Initial convergence to 1.0D-05 achieved.  Increase integral accuracy.
 SCF Done:  E(RwB97X) =  -227.738214151     A.U. after   16 cycles
            NFock= 16  Conv=0.91D-08     -V/T= 2.0078

 **********************************************************************

            Population analysis using the SCF density.

 **********************************************************************

 Orbital symmetries:
       Occupied  (A) (A) (A) (A) (A) (A) (A) (A) (A) (A) (A) (A)
                 (A) (A) (A)
       Virtual   (A) (A) (A) (A) (A) (A) (A) (A) (A) (A) (A) (A)
                 (A) (A) (A) (A) (A) (A) (A) (A) (A) (A) (A) (A)
                 (A) (A) (A) (A) (A) (A) (A) (A) (A) (A) (A) (A)
                 (A) (A) (A) (A) (A) (A) (A) (A) (A) (A) (A) (A)
                 (A)
 The electronic state is 1-A.
 Alpha  occ. eigenvalues --  -19.25373 -19.25284 -10.38092 -10.38014  -1.21662
 Alpha  occ. eigenvalues --   -1.17522  -0.87479  -0.69360  -0.67221  -0.58073
 Alpha  occ. eigenvalues --   -0.56290  -0.55120  -0.47871  -0.40922  -0.38113
 Alpha virt. eigenvalues --   -0.03519   0.14239   0.20783   0.23553   0.27291
 Alpha virt. eigenvalues --    0.42003   0.48441   0.58932   0.60974   0.67317
 Alpha virt. eigenvalues --    0.69897   0.77903   0.78352   0.86281   0.92974
 Alpha virt. eigenvalues --    0.94744   0.95946   1.03801   1.06699   1.10767
 Alpha virt. eigenvalues --    1.11627   1.21531   1.25408   1.38753   1.40160
 Alpha virt. eigenvalues --    1.51988   1.65659   1.70954   1.78085   1.83898
 Alpha virt. eigenvalues --    1.86556   1.97008   1.98305   2.13393   2.13941
 Alpha virt. eigenvalues --    2.18261   2.36166   2.44330   2.52100   2.60540
 Alpha virt. eigenvalues --    2.76394   2.78889   2.96976   3.02359   3.24027
 Alpha virt. eigenvalues --    3.74147   4.13563   4.14483   4.45089
          Condensed to atoms (all electrons):
               1          2          3          4          5          6
     1  H    0.618674   0.355695  -0.088967  -0.050720   0.003742   0.008611
     2  C    0.355695   4.855600   0.216923   0.548913  -0.073989  -0.083146
     3  C   -0.088967   0.216923   4.881301  -0.073539   0.536531   0.359222
     4  O   -0.050720   0.548913  -0.073539   7.906393  -0.002209   0.003076
     5  O    0.003742  -0.073989   0.536531  -0.002209   7.917194  -0.049928
     6  H    0.008611  -0.083146   0.359222   0.003076  -0.049928   0.600413
 Mulliken charges:
               1
     1  H    0.152967
     2  C    0.180004
     3  C    0.168529
     4  O   -0.331914
     5  O   -0.331340
     6  H    0.161754
 Sum of Mulliken charges =  -0.00000
 Mulliken charges with hydrogens summed into heavy atoms:
               1
     2  C    0.332971
     3  C    0.330282
     4  O   -0.331914
     5  O   -0.331340
 Electronic spatial extent (au):  <R**2>=            223.9013
 Charge=             -0.0000 electrons
 Dipole moment (field-independent basis, Debye):
    X=             -0.0679    Y=              3.6563    Z=             -0.0090  Tot=              3.6570
 Quadrupole moment (field-independent basis, Debye-Ang):
   XX=            -25.3108   YY=            -21.2412   ZZ=            -20.8098
   XY=             -0.1211   XZ=              0.0271   YZ=              0.0126
 Traceless Quadrupole moment (field-independent basis, Debye-Ang):
   XX=             -2.8569   YY=              1.2128   ZZ=              1.6441
   XY=             -0.1211   XZ=              0.0271   YZ=              0.0126
 Octapole moment (field-independent basis, Debye-Ang**2):
  XXX=             -0.3115  YYY=             -0.6540  ZZZ=              0.0116  XYY=             -0.0683
  XXY=              4.3132  XXZ=             -0.0179  XZZ=              0.0191  YZZ=             -1.3566
  YYZ=              0.0568  XYZ=              0.0130
 Hexadecapole moment (field-independent basis, Debye-Ang**3):
 XXXX=           -181.9969 YYYY=            -69.1632 ZZZZ=            -16.5796 XXXY=             -0.5211
 XXXZ=              0.0201 YYYX=             -0.1588 YYYZ=              0.0555 ZZZX=             -0.0287
 ZZZY=             -0.0237 XXYY=            -38.2407 XXZZ=            -30.3887 YYZZ=            -14.5175
 XXYZ=              0.0771 YYXZ=              0.0548 ZZXY=             -0.0013
 N-N= 1.061440349763D+02 E-N=-7.464374618474D+02  KE= 2.259752923413D+02
 1\1\GINC-NODE91\SP\RwB97X\6-31G(d)\C2H2O2\YANZ\05-Jun-2019\0\\# 6-31g(
 d) wb97x\\tmpdir/M2_conf_2_78.gjf\\0,1\H,0,0.,0.,0.\C,0,1.0883,0.,0.\C
 ,0,1.79334,0.,1.20604\O,0,1.6827,0.04634,-1.07001\O,0,3.02087,0.05883,
 1.18111\H,0,1.31448,-0.02689,2.18229\\Version=ES64L-G16RevA.03\State=1
 -A\HF=-227.7382142\RMSD=9.145e-09\Dipole=-1.2253924,-0.0636894,0.75126
 83\Quadrupole=0.048263,1.2208546,-1.2691176,-0.03608,-1.3654961,-0.016
 1077\PG=C01 [X(C2H2O2)]\\@


 HE THAT WALD REACHE THE SWEITE ROSE
 SULD NOW AND THEN BE SCRATCHED WT THE SCHARPE BREERES.
 -- PROVERBS AND REASONS OF THE YEAR 1585
           AS REPRINTED IN PAISLEY MAGAZINE 1828.
 Job cpu time:       0 days  0 hours  0 minutes 15.5 seconds.
 Elapsed time:       0 days  0 hours  0 minutes  7.9 seconds.
 File lengths (MBytes):  RWF=      6 Int=      0 D2E=      0 Chk=      1 Scr=      1
 Normal termination of Gaussian 16 at Wed Jun  5 17:04:17 2019.
