 Entering Gaussian System, Link 0=g16
 Initial command:
 /share/apps/gaussian/g16/l1.exe "/tmp/55477.mgr/Gau-321159.inp" -scrdir="/tmp/55477.mgr/"
 Entering Link 1 = /share/apps/gaussian/g16/l1.exe PID=    321160.
  
 Copyright (c) 1988,1990,1992,1993,1995,1998,2003,2009,2016,
            Gaussian, Inc.  All Rights Reserved.
  
 This is part of the Gaussian(R) 16 program.  It is based on
 the Gaussian(R) 09 system (copyright 2009, Gaussian, Inc.),
 the Gaussian(R) 03 system (copyright 2003, Gaussian, Inc.),
 the Gaussian(R) 98 system (copyright 1998, Gaussian, Inc.),
 the Gaussian(R) 94 system (copyright 1995, Gaussian, Inc.),
 the Gaussian 92(TM) system (copyright 1992, Gaussian, Inc.),
 the Gaussian 90(TM) system (copyright 1990, Gaussian, Inc.),
 the Gaussian 88(TM) system (copyright 1988, Gaussian, Inc.),
 the Gaussian 86(TM) system (copyright 1986, Carnegie Mellon
 University), and the Gaussian 82(TM) system (copyright 1983,
 Carnegie Mellon University). Gaussian is a federally registered
 trademark of Gaussian, Inc.
  
 This software contains proprietary and confidential information,
 including trade secrets, belonging to Gaussian, Inc.
  
 This software is provided under written license and may be
 used, copied, transmitted, or stored only in accord with that
 written license.
  
 The following legend is applicable only to US Government
 contracts under FAR:
  
                    RESTRICTED RIGHTS LEGEND
  
 Use, reproduction and disclosure by the US Government is
 subject to restrictions as set forth in subparagraphs (a)
 and (c) of the Commercial Computer Software - Restricted
 Rights clause in FAR 52.227-19.
  
 Gaussian, Inc.
 340 Quinnipiac St., Bldg. 40, Wallingford CT 06492
  
  
 ---------------------------------------------------------------
 Warning -- This program may not be used in any manner that
 competes with the business of Gaussian, Inc. or will provide
 assistance to any competitor of Gaussian, Inc.  The licensee
 of this program is prohibited from giving any competitor of
 Gaussian, Inc. access to this program.  By using this program,
 the user acknowledges that Gaussian, Inc. is engaged in the
 business of creating and licensing software in the field of
 computational chemistry and represents and warrants to the
 licensee that it is not a competitor of Gaussian, Inc. and that
 it will not use this program in any manner prohibited above.
 ---------------------------------------------------------------
  

 Cite this work as:
 Gaussian 16, Revision A.03,
 M. J. Frisch, G. W. Trucks, H. B. Schlegel, G. E. Scuseria, 
 M. A. Robb, J. R. Cheeseman, G. Scalmani, V. Barone, 
 G. A. Petersson, H. Nakatsuji, X. Li, M. Caricato, A. V. Marenich, 
 J. Bloino, B. G. Janesko, R. Gomperts, B. Mennucci, H. P. Hratchian, 
 J. V. Ortiz, A. F. Izmaylov, J. L. Sonnenberg, D. Williams-Young, 
 F. Ding, F. Lipparini, F. Egidi, J. Goings, B. Peng, A. Petrone, 
 T. Henderson, D. Ranasinghe, V. G. Zakrzewski, J. Gao, N. Rega, 
 G. Zheng, W. Liang, M. Hada, M. Ehara, K. Toyota, R. Fukuda, 
 J. Hasegawa, M. Ishida, T. Nakajima, Y. Honda, O. Kitao, H. Nakai, 
 T. Vreven, K. Throssell, J. A. Montgomery, Jr., J. E. Peralta, 
 F. Ogliaro, M. J. Bearpark, J. J. Heyd, E. N. Brothers, K. N. Kudin, 
 V. N. Staroverov, T. A. Keith, R. Kobayashi, J. Normand, 
 K. Raghavachari, A. P. Rendell, J. C. Burant, S. S. Iyengar, 
 J. Tomasi, M. Cossi, J. M. Millam, M. Klene, C. Adamo, R. Cammi, 
 J. W. Ochterski, R. L. Martin, K. Morokuma, O. Farkas, 
 J. B. Foresman, and D. J. Fox, Gaussian, Inc., Wallingford CT, 2016.
 
 ******************************************
 Gaussian 16:  ES64L-G16RevA.03 25-Dec-2016
                 5-Jun-2019 
 ******************************************
 %nprocshared=2
 Will use up to    2 processors via shared memory.
 %mem=2GB
 ----------------
 # 6-31g(d) wb97x
 ----------------
 1/38=1,172=1/1;
 2/12=2,17=6,18=5,40=1/2;
 3/5=1,6=6,7=1,11=2,25=1,30=1,74=-57/1,2,3;
 4//1;
 5/5=2,38=5/2;
 6/7=2,8=2,9=2,10=2,28=1/1;
 99/5=1,9=1/99;
 -----------------------
 tmpdir/M2_conf_0_63.gjf
 -----------------------
 Symbolic Z-matrix:
 Charge =  0 Multiplicity = 1
 H                     0.        0.        0. 
 C                     1.0985    0.        0. 
 C                     1.57837   0.        1.43668 
 H                     1.4429   -0.91713  -0.58473 
 H                     1.41041   0.94323  -0.4906 
 H                     1.62783  -0.8629    1.95981 
 O                     1.87015   1.05308   2.00129 
 
                          Input orientation:                          
 ---------------------------------------------------------------------
 Center     Atomic      Atomic             Coordinates (Angstroms)
 Number     Number       Type             X           Y           Z
 ---------------------------------------------------------------------
      1          1           0        0.000000    0.000000    0.000000
      2          6           0        1.098500    0.000000    0.000000
      3          6           0        1.578370    0.000000    1.436680
      4          1           0        1.442900   -0.917130   -0.584730
      5          1           0        1.410410    0.943230   -0.490600
      6          1           0        1.627830   -0.862900    1.959810
      7          8           0        1.870150    1.053080    2.001290
 ---------------------------------------------------------------------
                    Distance matrix (angstroms):
                    1          2          3          4          5
     1  H    0.000000
     2  C    1.098500   0.000000
     3  C    2.134315   1.514703   0.000000
     4  H    1.806930   1.140898   2.223866   0.000000
     5  H    1.766247   1.107998   2.152278   1.863023   0.000000
     6  H    2.689848   2.205820   1.010301   2.551828   3.051866
     7  O    2.934553   2.389473   1.229999   3.278989   2.536325
                    6          7
     6  H    0.000000
     7  O    1.931688   0.000000
 Stoichiometry    C2H4O
 Framework group  C1[X(C2H4O)]
 Deg. of freedom    15
 Full point group                 C1      NOp   1
 Largest Abelian subgroup         C1      NOp   1
 Largest concise Abelian subgroup C1      NOp   1
                         Standard orientation:                         
 ---------------------------------------------------------------------
 Center     Atomic      Atomic             Coordinates (Angstroms)
 Number     Number       Type             X           Y           Z
 ---------------------------------------------------------------------
      1          1           0        1.523077   -0.187851    1.031263
      2          6           0        1.163895   -0.143228   -0.005896
      3          6           0       -0.233457    0.441348   -0.005076
      4          1           0        1.908506    0.483158   -0.601584
      5          1           0        1.123114   -1.189882   -0.367161
      6          1           0       -0.369784    1.441692    0.032789
      7          8           0       -1.220942   -0.291979   -0.003684
 ---------------------------------------------------------------------
 Rotational constants (GHZ):          54.4996323          10.2325411           9.1036358
 Standard basis: 6-31G(d) (6D, 7F)
 There are    53 symmetry adapted cartesian basis functions of A   symmetry.
 There are    53 symmetry adapted basis functions of A   symmetry.
    53 basis functions,   100 primitive gaussians,    53 cartesian basis functions
    12 alpha electrons       12 beta electrons
       nuclear repulsion energy        69.4179014651 Hartrees.
 NAtoms=    7 NActive=    7 NUniq=    7 SFac= 1.00D+00 NAtFMM=   60 NAOKFM=F Big=F
 Integral buffers will be    131072 words long.
 Raffenetti 2 integral format.
 Two-electron integral symmetry is turned on.
 One-electron integrals computed using PRISM.
 NBasis=    53 RedAO= T EigKep=  5.94D-03  NBF=    53
 NBsUse=    53 1.00D-06 EigRej= -1.00D+00 NBFU=    53
 ExpMin= 1.61D-01 ExpMax= 5.48D+03 ExpMxC= 8.25D+02 IAcc=3 IRadAn=         5 AccDes= 0.00D+00
 Harris functional with IExCor= 4538 and IRadAn=       5 diagonalized for initial guess.
 HarFok:  IExCor= 4538 AccDes= 0.00D+00 IRadAn=         5 IDoV= 1 UseB2=F ITyADJ=14
 ICtDFT=  3500011 ScaDFX=  1.000000  1.000000  1.000000  1.000000
 FoFCou: FMM=F IPFlag=           0 FMFlag=      100000 FMFlg1=           0
         NFxFlg=           0 DoJE=T BraDBF=F KetDBF=T FulRan=T
         wScrn=  0.000000 ICntrl=       500 IOpCl=  0 I1Cent=   200000004 NGrid=           0
         NMat0=    1 NMatS0=      1 NMatT0=    0 NMatD0=    1 NMtDS0=    0 NMtDT0=    0
 Petite list used in FoFCou.
 Keep R1 ints in memory in canonical form, NReq=3800804.
 Requested convergence on RMS density matrix=1.00D-08 within 128 cycles.
 Requested convergence on MAX density matrix=1.00D-06.
 Requested convergence on             energy=1.00D-06.
 No special actions if energy rises.
 Integral accuracy reduced to 1.0D-05 until final iterations.
 Initial convergence to 1.0D-05 achieved.  Increase integral accuracy.
 SCF Done:  E(RwB97X) =  -153.775847775     A.U. after   15 cycles
            NFock= 15  Conv=0.71D-08     -V/T= 2.0091

 **********************************************************************

            Population analysis using the SCF density.

 **********************************************************************

 Orbital symmetries:
       Occupied  (A) (A) (A) (A) (A) (A) (A) (A) (A) (A) (A) (A)
       Virtual   (A) (A) (A) (A) (A) (A) (A) (A) (A) (A) (A) (A)
                 (A) (A) (A) (A) (A) (A) (A) (A) (A) (A) (A) (A)
                 (A) (A) (A) (A) (A) (A) (A) (A) (A) (A) (A) (A)
                 (A) (A) (A) (A) (A)
 The electronic state is 1-A.
 Alpha  occ. eigenvalues --  -19.21327 -10.35795 -10.28501  -1.15958  -0.87515
 Alpha  occ. eigenvalues --   -0.72123  -0.58812  -0.54824  -0.53630  -0.50058
 Alpha  occ. eigenvalues --   -0.45762  -0.35626
 Alpha virt. eigenvalues --    0.06994   0.20331   0.23399   0.25408   0.26214
 Alpha virt. eigenvalues --    0.34927   0.37678   0.63297   0.64048   0.70125
 Alpha virt. eigenvalues --    0.70917   0.76787   0.82541   0.85494   0.95024
 Alpha virt. eigenvalues --    0.98680   1.00745   1.03329   1.06646   1.10440
 Alpha virt. eigenvalues --    1.19870   1.33207   1.49601   1.57260   1.62230
 Alpha virt. eigenvalues --    1.82009   1.92037   1.93665   1.96310   2.15268
 Alpha virt. eigenvalues --    2.20412   2.26222   2.35942   2.43703   2.66579
 Alpha virt. eigenvalues --    2.67570   2.94430   3.04119   3.89363   4.19998
 Alpha virt. eigenvalues --    4.45249
          Condensed to atoms (all electrons):
               1          2          3          4          5          6
     1  H    0.504203   0.362534  -0.021923  -0.022559  -0.019946   0.002697
     2  C    0.362534   5.359585   0.314295   0.347089   0.364432  -0.101693
     3  C   -0.021923   0.314295   4.576978  -0.017626  -0.024771   0.367049
     4  H   -0.022559   0.347089  -0.017626   0.536092  -0.016702   0.004032
     5  H   -0.019946   0.364432  -0.024771  -0.016702   0.485792   0.004480
     6  H    0.002697  -0.101693   0.367049   0.004032   0.004480   0.629522
     7  O   -0.000304  -0.083897   0.565462   0.002404   0.005303  -0.055534
               7
     1  H   -0.000304
     2  C   -0.083897
     3  C    0.565462
     4  H    0.002404
     5  H    0.005303
     6  H   -0.055534
     7  O    7.958184
 Mulliken charges:
               1
     1  H    0.195299
     2  C   -0.562345
     3  C    0.240536
     4  H    0.167269
     5  H    0.201412
     6  H    0.149447
     7  O   -0.391618
 Sum of Mulliken charges =  -0.00000
 Mulliken charges with hydrogens summed into heavy atoms:
               1
     2  C    0.001635
     3  C    0.389984
     7  O   -0.391618
 Electronic spatial extent (au):  <R**2>=            166.4904
 Charge=             -0.0000 electrons
 Dipole moment (field-independent basis, Debye):
    X=              2.3922    Y=              1.3063    Z=              0.1240  Tot=              2.7285
 Quadrupole moment (field-independent basis, Debye-Ang):
   XX=            -20.7062   YY=            -17.3099   ZZ=            -17.6176
   XY=             -1.1393   XZ=              0.1233   YZ=             -0.0461
 Traceless Quadrupole moment (field-independent basis, Debye-Ang):
   XX=             -2.1616   YY=              1.2347   ZZ=              0.9269
   XY=             -1.1393   XZ=              0.1233   YZ=             -0.0461
 Octapole moment (field-independent basis, Debye-Ang**2):
  XXX=              0.3713  YYY=              0.0331  ZZZ=              0.8910  XYY=             -1.1489
  XXY=              1.0057  XXZ=              0.0310  XZZ=             -1.0256  YZZ=             -0.1662
  YYZ=             -0.4372  XYZ=             -0.2853
 Hexadecapole moment (field-independent basis, Debye-Ang**3):
 XXXX=           -147.6353 YYYY=            -38.9257 ZZZZ=            -22.0163 XXXY=              2.0190
 XXXZ=             -0.2982 YYYX=             -0.8618 YYYZ=              0.6533 ZZZX=              1.4188
 ZZZY=             -0.2608 XXYY=            -30.2674 XXZZ=            -25.8656 YYZZ=            -10.6785
 XXYZ=             -0.8760 YYXZ=             -0.6598 ZZXY=              0.4954
 N-N= 6.941790146509D+01 E-N=-4.979438755872D+02  KE= 1.523861510052D+02
 1\1\GINC-NODE91\SP\RwB97X\6-31G(d)\C2H4O1\YANZ\05-Jun-2019\0\\# 6-31g(
 d) wb97x\\tmpdir/M2_conf_0_63.gjf\\0,1\H,0,0.,0.,0.\C,0,1.0985,0.,0.\C
 ,0,1.57837,0.,1.43668\H,0,1.4429,-0.91713,-0.58473\H,0,1.41041,0.94323
 ,-0.4906\H,0,1.62783,-0.8629,1.95981\O,0,1.87015,1.05308,2.00129\\Vers
 ion=ES64L-G16RevA.03\State=1-A\HF=-153.7758478\RMSD=7.141e-09\Dipole=-
 0.3329138,-0.8290949,-0.5950539\Quadrupole=0.5257735,-0.0552707,-0.470
 5027,-0.5375483,-0.4284156,-1.3979723\PG=C01 [X(C2H4O1)]\\@


 IT CANNOT BE MY BEAUTY, FOR I HAVE NONE; AND IT CANNOT BE MY WIT,
 FOR HE HAS NOT ENOUGH TO KNOW THAT I HAVE ANY.
 -- CATHARINE SEDLEY, PUZZLED ABOUT WHY SHE WAS MISTRESS TO JAMES II
 Job cpu time:       0 days  0 hours  0 minutes 13.5 seconds.
 Elapsed time:       0 days  0 hours  0 minutes  6.9 seconds.
 File lengths (MBytes):  RWF=      6 Int=      0 D2E=      0 Chk=      1 Scr=      1
 Normal termination of Gaussian 16 at Wed Jun  5 16:59:55 2019.
