 Entering Gaussian System, Link 0=g16
 Initial command:
 /share/apps/gaussian/g16/l1.exe "/tmp/55477.mgr/Gau-323761.inp" -scrdir="/tmp/55477.mgr/"
 Entering Link 1 = /share/apps/gaussian/g16/l1.exe PID=    323762.
  
 Copyright (c) 1988,1990,1992,1993,1995,1998,2003,2009,2016,
            Gaussian, Inc.  All Rights Reserved.
  
 This is part of the Gaussian(R) 16 program.  It is based on
 the Gaussian(R) 09 system (copyright 2009, Gaussian, Inc.),
 the Gaussian(R) 03 system (copyright 2003, Gaussian, Inc.),
 the Gaussian(R) 98 system (copyright 1998, Gaussian, Inc.),
 the Gaussian(R) 94 system (copyright 1995, Gaussian, Inc.),
 the Gaussian 92(TM) system (copyright 1992, Gaussian, Inc.),
 the Gaussian 90(TM) system (copyright 1990, Gaussian, Inc.),
 the Gaussian 88(TM) system (copyright 1988, Gaussian, Inc.),
 the Gaussian 86(TM) system (copyright 1986, Carnegie Mellon
 University), and the Gaussian 82(TM) system (copyright 1983,
 Carnegie Mellon University). Gaussian is a federally registered
 trademark of Gaussian, Inc.
  
 This software contains proprietary and confidential information,
 including trade secrets, belonging to Gaussian, Inc.
  
 This software is provided under written license and may be
 used, copied, transmitted, or stored only in accord with that
 written license.
  
 The following legend is applicable only to US Government
 contracts under FAR:
  
                    RESTRICTED RIGHTS LEGEND
  
 Use, reproduction and disclosure by the US Government is
 subject to restrictions as set forth in subparagraphs (a)
 and (c) of the Commercial Computer Software - Restricted
 Rights clause in FAR 52.227-19.
  
 Gaussian, Inc.
 340 Quinnipiac St., Bldg. 40, Wallingford CT 06492
  
  
 ---------------------------------------------------------------
 Warning -- This program may not be used in any manner that
 competes with the business of Gaussian, Inc. or will provide
 assistance to any competitor of Gaussian, Inc.  The licensee
 of this program is prohibited from giving any competitor of
 Gaussian, Inc. access to this program.  By using this program,
 the user acknowledges that Gaussian, Inc. is engaged in the
 business of creating and licensing software in the field of
 computational chemistry and represents and warrants to the
 licensee that it is not a competitor of Gaussian, Inc. and that
 it will not use this program in any manner prohibited above.
 ---------------------------------------------------------------
  

 Cite this work as:
 Gaussian 16, Revision A.03,
 M. J. Frisch, G. W. Trucks, H. B. Schlegel, G. E. Scuseria, 
 M. A. Robb, J. R. Cheeseman, G. Scalmani, V. Barone, 
 G. A. Petersson, H. Nakatsuji, X. Li, M. Caricato, A. V. Marenich, 
 J. Bloino, B. G. Janesko, R. Gomperts, B. Mennucci, H. P. Hratchian, 
 J. V. Ortiz, A. F. Izmaylov, J. L. Sonnenberg, D. Williams-Young, 
 F. Ding, F. Lipparini, F. Egidi, J. Goings, B. Peng, A. Petrone, 
 T. Henderson, D. Ranasinghe, V. G. Zakrzewski, J. Gao, N. Rega, 
 G. Zheng, W. Liang, M. Hada, M. Ehara, K. Toyota, R. Fukuda, 
 J. Hasegawa, M. Ishida, T. Nakajima, Y. Honda, O. Kitao, H. Nakai, 
 T. Vreven, K. Throssell, J. A. Montgomery, Jr., J. E. Peralta, 
 F. Ogliaro, M. J. Bearpark, J. J. Heyd, E. N. Brothers, K. N. Kudin, 
 V. N. Staroverov, T. A. Keith, R. Kobayashi, J. Normand, 
 K. Raghavachari, A. P. Rendell, J. C. Burant, S. S. Iyengar, 
 J. Tomasi, M. Cossi, J. M. Millam, M. Klene, C. Adamo, R. Cammi, 
 J. W. Ochterski, R. L. Martin, K. Morokuma, O. Farkas, 
 J. B. Foresman, and D. J. Fox, Gaussian, Inc., Wallingford CT, 2016.
 
 ******************************************
 Gaussian 16:  ES64L-G16RevA.03 25-Dec-2016
                 5-Jun-2019 
 ******************************************
 %nprocshared=2
 Will use up to    2 processors via shared memory.
 %mem=2GB
 ----------------
 # 6-31g(d) wb97x
 ----------------
 1/38=1,172=1/1;
 2/12=2,17=6,18=5,40=1/2;
 3/5=1,6=6,7=1,11=2,25=1,30=1,74=-57/1,2,3;
 4//1;
 5/5=2,38=5/2;
 6/7=2,8=2,9=2,10=2,28=1/1;
 99/5=1,9=1/99;
 -----------------------
 tmpdir/M2_conf_1_91.gjf
 -----------------------
 Symbolic Z-matrix:
 Charge =  0 Multiplicity = 1
 C                     0.        0.        0. 
 C                     1.397     0.        0. 
 C                     2.227     0.        1.25256 
 O                    -0.61984   0.01512  -1.05638 
 H                    -0.55284   0.02781   0.93701 
 O                     1.99499   0.02699  -1.0736 
 O                     3.35765   0.46273   1.26015 
 H                     1.75266  -0.4447    2.11065 
 
                          Input orientation:                          
 ---------------------------------------------------------------------
 Center     Atomic      Atomic             Coordinates (Angstroms)
 Number     Number       Type             X           Y           Z
 ---------------------------------------------------------------------
      1          6           0        0.000000    0.000000    0.000000
      2          6           0        1.397000    0.000000    0.000000
      3          6           0        2.227000    0.000000    1.252560
      4          8           0       -0.619840    0.015120   -1.056380
      5          1           0       -0.552840    0.027810    0.937010
      6          8           0        1.994990    0.026990   -1.073600
      7          8           0        3.357650    0.462730    1.260150
      8          1           0        1.752660   -0.444700    2.110650
 ---------------------------------------------------------------------
                    Distance matrix (angstroms):
                    1          2          3          4          5
     1  C    0.000000
     2  C    1.397000   0.000000
     3  C    2.555080   1.502600   0.000000
     4  O    1.224895   2.276798   3.665505   0.000000
     5  H    1.088298   2.163478   2.797831   1.994556   0.000000
     6  O    2.265685   1.229202   2.337857   2.614914   3.245611
     7  O    3.616063   2.376183   1.221698   4.624618   3.947848
     8  H    2.779284   2.186114   1.076603   3.983751   2.629834
                    6          7          8
     6  O    0.000000
     7  O    2.737353   0.000000
     8  H    3.228105   2.030461   0.000000
 Stoichiometry    C3H2O3
 Framework group  C1[X(C3H2O3)]
 Deg. of freedom    18
 Full point group                 C1      NOp   1
 Largest Abelian subgroup         C1      NOp   1
 Largest concise Abelian subgroup C1      NOp   1
                         Standard orientation:                         
 ---------------------------------------------------------------------
 Center     Atomic      Atomic             Coordinates (Angstroms)
 Number     Number       Type             X           Y           Z
 ---------------------------------------------------------------------
      1          6           0        1.234591   -0.631007   -0.030228
      2          6           0        0.034445    0.074980    0.083090
      3          6           0       -1.313497   -0.585296    0.153062
      4          8           0        2.301473   -0.033041   -0.097809
      5          1           0        1.232603   -1.717012   -0.100809
      6          8           0        0.062990    1.303698    0.102426
      7          8           0       -2.321521   -0.002268   -0.216413
      8          1           0       -1.309377   -1.582170    0.559633
 ---------------------------------------------------------------------
 Rotational constants (GHZ):          11.6731295           2.3504764           1.9834193
 Standard basis: 6-31G(d) (6D, 7F)
 There are    94 symmetry adapted cartesian basis functions of A   symmetry.
 There are    94 symmetry adapted basis functions of A   symmetry.
    94 basis functions,   176 primitive gaussians,    94 cartesian basis functions
    22 alpha electrons       22 beta electrons
       nuclear repulsion energy       206.7091082795 Hartrees.
 NAtoms=    8 NActive=    8 NUniq=    8 SFac= 1.00D+00 NAtFMM=   60 NAOKFM=F Big=F
 Integral buffers will be    131072 words long.
 Raffenetti 2 integral format.
 Two-electron integral symmetry is turned on.
 One-electron integrals computed using PRISM.
 NBasis=    94 RedAO= T EigKep=  2.21D-03  NBF=    94
 NBsUse=    94 1.00D-06 EigRej= -1.00D+00 NBFU=    94
 ExpMin= 1.61D-01 ExpMax= 5.48D+03 ExpMxC= 8.25D+02 IAcc=3 IRadAn=         5 AccDes= 0.00D+00
 Harris functional with IExCor= 4538 and IRadAn=       5 diagonalized for initial guess.
 HarFok:  IExCor= 4538 AccDes= 0.00D+00 IRadAn=         5 IDoV= 1 UseB2=F ITyADJ=14
 ICtDFT=  3500011 ScaDFX=  1.000000  1.000000  1.000000  1.000000
 FoFCou: FMM=F IPFlag=           0 FMFlag=      100000 FMFlg1=           0
         NFxFlg=           0 DoJE=T BraDBF=F KetDBF=T FulRan=T
         wScrn=  0.000000 ICntrl=       500 IOpCl=  0 I1Cent=   200000004 NGrid=           0
         NMat0=    1 NMatS0=      1 NMatT0=    0 NMatD0=    1 NMtDS0=    0 NMtDT0=    0
 Petite list used in FoFCou.
 Keep R1 ints in memory in canonical form, NReq=21775454.
 Requested convergence on RMS density matrix=1.00D-08 within 128 cycles.
 Requested convergence on MAX density matrix=1.00D-06.
 Requested convergence on             energy=1.00D-06.
 No special actions if energy rises.
 Integral accuracy reduced to 1.0D-05 until final iterations.
 Initial convergence to 1.0D-05 achieved.  Increase integral accuracy.
 SCF Done:  E(RwB97X) =  -341.017928075     A.U. after   18 cycles
            NFock= 18  Conv=0.94D-08     -V/T= 2.0080

 **********************************************************************

            Population analysis using the SCF density.

 **********************************************************************

 Orbital symmetries:
       Occupied  (A) (A) (A) (A) (A) (A) (A) (A) (A) (A) (A) (A)
                 (A) (A) (A) (A) (A) (A) (A) (A) (A) (A)
       Virtual   (A) (A) (A) (A) (A) (A) (A) (A) (A) (A) (A) (A)
                 (A) (A) (A) (A) (A) (A) (A) (A) (A) (A) (A) (A)
                 (A) (A) (A) (A) (A) (A) (A) (A) (A) (A) (A) (A)
                 (A) (A) (A) (A) (A) (A) (A) (A) (A) (A) (A) (A)
                 (A) (A) (A) (A) (A) (A) (A) (A) (A) (A) (A) (A)
                 (A) (A) (A) (A) (A) (A) (A) (A) (A) (A) (A) (A)
 The electronic state is 1-A.
 Alpha  occ. eigenvalues --  -19.26944 -19.26807 -19.26694 -10.40162 -10.39573
 Alpha  occ. eigenvalues --  -10.39504  -1.23761  -1.20921  -1.18512  -0.91756
 Alpha  occ. eigenvalues --   -0.79341  -0.69738  -0.67994  -0.60255  -0.59595
 Alpha  occ. eigenvalues --   -0.57486  -0.57020  -0.52789  -0.48514  -0.43565
 Alpha  occ. eigenvalues --   -0.41877  -0.37817
 Alpha virt. eigenvalues --   -0.06567   0.02901   0.15593   0.18949   0.22574
 Alpha virt. eigenvalues --    0.25947   0.35755   0.36371   0.43988   0.49988
 Alpha virt. eigenvalues --    0.56774   0.58537   0.64239   0.69679   0.71463
 Alpha virt. eigenvalues --    0.72261   0.76326   0.77558   0.84235   0.86002
 Alpha virt. eigenvalues --    0.91527   0.92943   0.93148   0.98575   1.00488
 Alpha virt. eigenvalues --    1.04487   1.07705   1.08562   1.12374   1.13650
 Alpha virt. eigenvalues --    1.18858   1.22219   1.26079   1.38439   1.45505
 Alpha virt. eigenvalues --    1.49260   1.58141   1.61861   1.66061   1.71433
 Alpha virt. eigenvalues --    1.77915   1.81475   1.82599   1.83500   1.90126
 Alpha virt. eigenvalues --    1.94482   1.95623   2.07008   2.08333   2.11166
 Alpha virt. eigenvalues --    2.12945   2.15338   2.27109   2.35367   2.45613
 Alpha virt. eigenvalues --    2.48879   2.52979   2.59722   2.65152   2.77413
 Alpha virt. eigenvalues --    2.78988   2.95291   2.99380   3.00979   3.13711
 Alpha virt. eigenvalues --    3.31826   3.75908   3.94401   4.07201   4.26995
 Alpha virt. eigenvalues --    4.32753   4.64302
          Condensed to atoms (all electrons):
               1          2          3          4          5          6
     1  C    4.898221   0.146238  -0.068534   0.544600   0.379530  -0.076244
     2  C    0.146238   5.108591   0.200804  -0.067136  -0.106926   0.555080
     3  C   -0.068534   0.200804   4.837137   0.002853   0.012616  -0.071702
     4  O    0.544600  -0.067136   0.002853   7.896699  -0.046965  -0.005984
     5  H    0.379530  -0.106926   0.012616  -0.046965   0.597321   0.002870
     6  O   -0.076244   0.555080  -0.071702  -0.005984   0.002870   7.935253
     7  O    0.002796  -0.062524   0.547723  -0.000018  -0.000020  -0.000599
     8  H    0.015275  -0.105546   0.357946  -0.000068  -0.000413   0.002927
               7          8
     1  C    0.002796   0.015275
     2  C   -0.062524  -0.105546
     3  C    0.547723   0.357946
     4  O   -0.000018  -0.000068
     5  H   -0.000020  -0.000413
     6  O   -0.000599   0.002927
     7  O    7.882307  -0.042156
     8  H   -0.042156   0.611626
 Mulliken charges:
               1
     1  C    0.158118
     2  C    0.331420
     3  C    0.181158
     4  O   -0.323980
     5  H    0.161987
     6  O   -0.341601
     7  O   -0.327509
     8  H    0.160408
 Sum of Mulliken charges =  -0.00000
 Mulliken charges with hydrogens summed into heavy atoms:
               1
     1  C    0.320104
     2  C    0.331420
     3  C    0.341566
     4  O   -0.323980
     6  O   -0.341601
     7  O   -0.327509
 Electronic spatial extent (au):  <R**2>=            552.8566
 Charge=             -0.0000 electrons
 Dipole moment (field-independent basis, Debye):
    X=             -0.0801    Y=             -3.9291    Z=              0.7065  Tot=              3.9929
 Quadrupole moment (field-independent basis, Debye-Ang):
   XX=            -43.2543   YY=            -31.9634   ZZ=            -30.3318
   XY=             -0.0814   XZ=             -1.0123   YZ=             -0.3868
 Traceless Quadrupole moment (field-independent basis, Debye-Ang):
   XX=             -8.0711   YY=              3.2198   ZZ=              4.8513
   XY=             -0.0814   XZ=             -1.0123   YZ=             -0.3868
 Octapole moment (field-independent basis, Debye-Ang**2):
  XXX=              0.2303  YYY=             -3.1310  ZZZ=             -0.5812  XYY=              0.0731
  XXY=             -1.6583  XXZ=              3.2980  XZZ=              0.2525  YZZ=              1.3699
  YYZ=             -0.1004  XYZ=              0.2575
 Hexadecapole moment (field-independent basis, Debye-Ang**3):
 XXXX=           -560.6868 YYYY=           -124.1737 ZZZZ=            -28.5357 XXXY=              0.2477
 XXXZ=             -2.1699 YYYX=             -0.9425 YYYZ=             -0.6751 ZZZX=              0.8111
 ZZZY=              0.4438 XXYY=            -97.3837 XXZZ=            -81.2298 YYZZ=            -25.1516
 XXYZ=             -0.1957 YYXZ=             -0.7652 ZZXY=              0.4717
 N-N= 2.067091082795D+02 E-N=-1.212893086155D+03  KE= 3.383076934664D+02
 1\1\GINC-NODE91\SP\RwB97X\6-31G(d)\C3H2O3\YANZ\05-Jun-2019\0\\# 6-31g(
 d) wb97x\\tmpdir/M2_conf_1_91.gjf\\0,1\C,0,0.,0.,0.\C,0,1.397,0.,0.\C,
 0,2.227,0.,1.25256\O,0,-0.61984,0.01512,-1.05638\H,0,-0.55284,0.02781,
 0.93701\O,0,1.99499,0.02699,-1.0736\O,0,3.35765,0.46273,1.26015\H,0,1.
 75266,-0.4447,2.11065\\Version=ES64L-G16RevA.03\State=1-A\HF=-341.0179
 281\RMSD=9.428e-09\Dipole=-0.7315672,-0.3355548,1.3490928\Quadrupole=-
 3.6597535,3.4729212,0.1868322,-1.1020055,-3.6324203,-0.9343106\PG=C01 
 [X(C3H2O3)]\\@


 This summer one third of the nation will be ill-housed
 ill-nourished and ill-clad. Only they call it a vacation.
 -- Jonas Salk
 Job cpu time:       0 days  0 hours  0 minutes 35.0 seconds.
 Elapsed time:       0 days  0 hours  0 minutes 17.8 seconds.
 File lengths (MBytes):  RWF=     10 Int=      0 D2E=      0 Chk=      2 Scr=      1
 Normal termination of Gaussian 16 at Wed Jun  5 17:02:14 2019.
