 Entering Gaussian System, Link 0=g16
 Initial command:
 /share/apps/gaussian/g16/l1.exe "/tmp/55477.mgr/Gau-324733.inp" -scrdir="/tmp/55477.mgr/"
 Entering Link 1 = /share/apps/gaussian/g16/l1.exe PID=    324734.
  
 Copyright (c) 1988,1990,1992,1993,1995,1998,2003,2009,2016,
            Gaussian, Inc.  All Rights Reserved.
  
 This is part of the Gaussian(R) 16 program.  It is based on
 the Gaussian(R) 09 system (copyright 2009, Gaussian, Inc.),
 the Gaussian(R) 03 system (copyright 2003, Gaussian, Inc.),
 the Gaussian(R) 98 system (copyright 1998, Gaussian, Inc.),
 the Gaussian(R) 94 system (copyright 1995, Gaussian, Inc.),
 the Gaussian 92(TM) system (copyright 1992, Gaussian, Inc.),
 the Gaussian 90(TM) system (copyright 1990, Gaussian, Inc.),
 the Gaussian 88(TM) system (copyright 1988, Gaussian, Inc.),
 the Gaussian 86(TM) system (copyright 1986, Carnegie Mellon
 University), and the Gaussian 82(TM) system (copyright 1983,
 Carnegie Mellon University). Gaussian is a federally registered
 trademark of Gaussian, Inc.
  
 This software contains proprietary and confidential information,
 including trade secrets, belonging to Gaussian, Inc.
  
 This software is provided under written license and may be
 used, copied, transmitted, or stored only in accord with that
 written license.
  
 The following legend is applicable only to US Government
 contracts under FAR:
  
                    RESTRICTED RIGHTS LEGEND
  
 Use, reproduction and disclosure by the US Government is
 subject to restrictions as set forth in subparagraphs (a)
 and (c) of the Commercial Computer Software - Restricted
 Rights clause in FAR 52.227-19.
  
 Gaussian, Inc.
 340 Quinnipiac St., Bldg. 40, Wallingford CT 06492
  
  
 ---------------------------------------------------------------
 Warning -- This program may not be used in any manner that
 competes with the business of Gaussian, Inc. or will provide
 assistance to any competitor of Gaussian, Inc.  The licensee
 of this program is prohibited from giving any competitor of
 Gaussian, Inc. access to this program.  By using this program,
 the user acknowledges that Gaussian, Inc. is engaged in the
 business of creating and licensing software in the field of
 computational chemistry and represents and warrants to the
 licensee that it is not a competitor of Gaussian, Inc. and that
 it will not use this program in any manner prohibited above.
 ---------------------------------------------------------------
  

 Cite this work as:
 Gaussian 16, Revision A.03,
 M. J. Frisch, G. W. Trucks, H. B. Schlegel, G. E. Scuseria, 
 M. A. Robb, J. R. Cheeseman, G. Scalmani, V. Barone, 
 G. A. Petersson, H. Nakatsuji, X. Li, M. Caricato, A. V. Marenich, 
 J. Bloino, B. G. Janesko, R. Gomperts, B. Mennucci, H. P. Hratchian, 
 J. V. Ortiz, A. F. Izmaylov, J. L. Sonnenberg, D. Williams-Young, 
 F. Ding, F. Lipparini, F. Egidi, J. Goings, B. Peng, A. Petrone, 
 T. Henderson, D. Ranasinghe, V. G. Zakrzewski, J. Gao, N. Rega, 
 G. Zheng, W. Liang, M. Hada, M. Ehara, K. Toyota, R. Fukuda, 
 J. Hasegawa, M. Ishida, T. Nakajima, Y. Honda, O. Kitao, H. Nakai, 
 T. Vreven, K. Throssell, J. A. Montgomery, Jr., J. E. Peralta, 
 F. Ogliaro, M. J. Bearpark, J. J. Heyd, E. N. Brothers, K. N. Kudin, 
 V. N. Staroverov, T. A. Keith, R. Kobayashi, J. Normand, 
 K. Raghavachari, A. P. Rendell, J. C. Burant, S. S. Iyengar, 
 J. Tomasi, M. Cossi, J. M. Millam, M. Klene, C. Adamo, R. Cammi, 
 J. W. Ochterski, R. L. Martin, K. Morokuma, O. Farkas, 
 J. B. Foresman, and D. J. Fox, Gaussian, Inc., Wallingford CT, 2016.
 
 ******************************************
 Gaussian 16:  ES64L-G16RevA.03 25-Dec-2016
                 5-Jun-2019 
 ******************************************
 %nprocshared=2
 Will use up to    2 processors via shared memory.
 %mem=2GB
 ----------------
 # 6-31g(d) wb97x
 ----------------
 1/38=1,172=1/1;
 2/12=2,17=6,18=5,40=1/2;
 3/5=1,6=6,7=1,11=2,25=1,30=1,74=-57/1,2,3;
 4//1;
 5/5=2,38=5/2;
 6/7=2,8=2,9=2,10=2,28=1/1;
 99/5=1,9=1/99;
 ------------------------
 tmpdir/M2_conf_1_185.gjf
 ------------------------
 Symbolic Z-matrix:
 Charge =  0 Multiplicity = 1
 C                     0.        0.        0. 
 N                     1.3401    0.        0. 
 O                    -0.67921   0.       -1.02114 
 H                    -0.4744   -0.00462   0.98045 
 O                     1.86881   0.00739  -1.03315 
 
                          Input orientation:                          
 ---------------------------------------------------------------------
 Center     Atomic      Atomic             Coordinates (Angstroms)
 Number     Number       Type             X           Y           Z
 ---------------------------------------------------------------------
      1          6           0        0.000000    0.000000    0.000000
      2          7           0        1.340100    0.000000    0.000000
      3          8           0       -0.679210    0.000000   -1.021140
      4          1           0       -0.474400   -0.004620    0.980450
      5          8           0        1.868810    0.007390   -1.033150
 ---------------------------------------------------------------------
                    Distance matrix (angstroms):
                    1          2          3          4          5
     1  C    0.000000
     2  N    1.340100   0.000000
     3  O    1.226398   2.262817   0.000000
     4  H    1.089201   2.062453   2.012046   0.000000
     5  O    2.135393   1.160598   2.548059   3.089557   0.000000
 Stoichiometry    CHNO2
 Framework group  C1[X(CHNO2)]
 Deg. of freedom     9
 Full point group                 C1      NOp   1
 Largest Abelian subgroup         C1      NOp   1
 Largest concise Abelian subgroup C1      NOp   1
                         Standard orientation:                         
 ---------------------------------------------------------------------
 Center     Atomic      Atomic             Coordinates (Angstroms)
 Number     Number       Type             X           Y           Z
 ---------------------------------------------------------------------
      1          6           0        0.632980    0.491750    0.001446
      2          7           0       -0.706175    0.541985   -0.001632
      3          8           0        1.273442   -0.554126   -0.000665
      4          1           0        1.143801    1.453738    0.001442
      5          8           0       -1.273249   -0.470640    0.000828
 ---------------------------------------------------------------------
 Rotational constants (GHZ):          28.8703404           7.7731895           6.1242756
 Standard basis: 6-31G(d) (6D, 7F)
 There are    62 symmetry adapted cartesian basis functions of A   symmetry.
 There are    62 symmetry adapted basis functions of A   symmetry.
    62 basis functions,   116 primitive gaussians,    62 cartesian basis functions
    15 alpha electrons       15 beta electrons
       nuclear repulsion energy       109.2975066662 Hartrees.
 NAtoms=    5 NActive=    5 NUniq=    5 SFac= 1.00D+00 NAtFMM=   60 NAOKFM=F Big=F
 Integral buffers will be    131072 words long.
 Raffenetti 2 integral format.
 Two-electron integral symmetry is turned on.
 One-electron integrals computed using PRISM.
 NBasis=    62 RedAO= T EigKep=  3.16D-03  NBF=    62
 NBsUse=    62 1.00D-06 EigRej= -1.00D+00 NBFU=    62
 ExpMin= 1.61D-01 ExpMax= 5.48D+03 ExpMxC= 8.25D+02 IAcc=3 IRadAn=         5 AccDes= 0.00D+00
 Harris functional with IExCor= 4538 and IRadAn=       5 diagonalized for initial guess.
 HarFok:  IExCor= 4538 AccDes= 0.00D+00 IRadAn=         5 IDoV= 1 UseB2=F ITyADJ=14
 ICtDFT=  3500011 ScaDFX=  1.000000  1.000000  1.000000  1.000000
 FoFCou: FMM=F IPFlag=           0 FMFlag=      100000 FMFlg1=           0
         NFxFlg=           0 DoJE=T BraDBF=F KetDBF=T FulRan=T
         wScrn=  0.000000 ICntrl=       500 IOpCl=  0 I1Cent=   200000004 NGrid=           0
         NMat0=    1 NMatS0=      1 NMatT0=    0 NMatD0=    1 NMtDS0=    0 NMtDT0=    0
 Petite list used in FoFCou.
 Keep R1 ints in memory in canonical form, NReq=5584247.
 Requested convergence on RMS density matrix=1.00D-08 within 128 cycles.
 Requested convergence on MAX density matrix=1.00D-06.
 Requested convergence on             energy=1.00D-06.
 No special actions if energy rises.
 Integral accuracy reduced to 1.0D-05 until final iterations.
 Initial convergence to 1.0D-05 achieved.  Increase integral accuracy.
 SCF Done:  E(RwB97X) =  -243.699648222     A.U. after   24 cycles
            NFock= 24  Conv=0.11D-08     -V/T= 2.0067

 **********************************************************************

            Population analysis using the SCF density.

 **********************************************************************

 Orbital symmetries:
       Occupied  (A) (A) (A) (A) (A) (A) (A) (A) (A) (A) (A) (A)
                 (A) (A) (A)
       Virtual   (A) (A) (A) (A) (A) (A) (A) (A) (A) (A) (A) (A)
                 (A) (A) (A) (A) (A) (A) (A) (A) (A) (A) (A) (A)
                 (A) (A) (A) (A) (A) (A) (A) (A) (A) (A) (A) (A)
                 (A) (A) (A) (A) (A) (A) (A) (A) (A) (A) (A)
 The electronic state is 1-A.
 Alpha  occ. eigenvalues --  -19.32005 -19.27172 -14.54064 -10.40676  -1.36692
 Alpha  occ. eigenvalues --   -1.20957  -0.96428  -0.72238  -0.68027  -0.63773
 Alpha  occ. eigenvalues --   -0.62103  -0.55484  -0.51407  -0.42939  -0.35068
 Alpha virt. eigenvalues --   -0.06707   0.11612   0.21799   0.30450   0.38172
 Alpha virt. eigenvalues --    0.49172   0.59340   0.64666   0.71329   0.77854
 Alpha virt. eigenvalues --    0.79370   0.80072   0.84615   0.90369   0.93865
 Alpha virt. eigenvalues --    0.97693   1.00208   1.08637   1.11889   1.15039
 Alpha virt. eigenvalues --    1.26067   1.39654   1.39847   1.50459   1.64906
 Alpha virt. eigenvalues --    1.66956   1.72491   1.81720   1.84629   1.94176
 Alpha virt. eigenvalues --    1.95792   1.99037   2.18899   2.22507   2.40952
 Alpha virt. eigenvalues --    2.51218   2.53647   2.66298   2.81011   2.81385
 Alpha virt. eigenvalues --    2.93767   3.00577   3.23109   3.67470   3.83283
 Alpha virt. eigenvalues --    4.05458   4.28281
          Condensed to atoms (all electrons):
               1          2          3          4          5
     1  C    4.682503   0.148496   0.561422   0.385253  -0.060858
     2  N    0.148496   6.736301  -0.077736  -0.087259   0.241671
     3  O    0.561422  -0.077736   7.878009  -0.050024   0.002646
     4  H    0.385253  -0.087259  -0.050024   0.563272   0.005870
     5  O   -0.060858   0.241671   0.002646   0.005870   8.000950
 Mulliken charges:
               1
     1  C    0.283183
     2  N    0.038526
     3  O   -0.314318
     4  H    0.182888
     5  O   -0.190279
 Sum of Mulliken charges =  -0.00000
 Mulliken charges with hydrogens summed into heavy atoms:
               1
     1  C    0.466070
     2  N    0.038526
     3  O   -0.314318
     5  O   -0.190279
 Electronic spatial extent (au):  <R**2>=            202.6142
 Charge=             -0.0000 electrons
 Dipole moment (field-independent basis, Debye):
    X=              0.6172    Y=              1.8468    Z=              0.0082  Tot=              1.9472
 Quadrupole moment (field-independent basis, Debye-Ang):
   XX=            -24.5275   YY=            -21.9000   ZZ=            -19.5839
   XY=              2.8150   XZ=             -0.0065   YZ=              0.0142
 Traceless Quadrupole moment (field-independent basis, Debye-Ang):
   XX=             -2.5237   YY=              0.1037   ZZ=              2.4199
   XY=              2.8150   XZ=             -0.0065   YZ=              0.0142
 Octapole moment (field-independent basis, Debye-Ang**2):
  XXX=             -1.1411  YYY=             -2.2253  ZZZ=              0.0033  XYY=              2.3759
  XXY=              1.0944  XXZ=              0.0194  XZZ=             -0.8234  YZZ=             -1.0993
  YYZ=              0.0108  XYZ=             -0.0150
 Hexadecapole moment (field-independent basis, Debye-Ang**3):
 XXXX=           -161.1852 YYYY=            -59.4260 ZZZZ=            -14.6553 XXXY=              3.9766
 XXXZ=             -0.0257 YYYX=              4.8223 YYYZ=              0.0227 ZZZX=             -0.0135
 ZZZY=              0.0070 XXYY=            -35.3743 XXZZ=            -26.4556 YYZZ=            -12.1658
 XXYZ=              0.0102 YYXZ=             -0.0080 ZZXY=              0.1347
 N-N= 1.092975066662D+02 E-N=-7.906705903260D+02  KE= 2.420773757965D+02
 1\1\GINC-NODE91\SP\RwB97X\6-31G(d)\C1H1N1O2\YANZ\05-Jun-2019\0\\# 6-31
 g(d) wb97x\\tmpdir/M2_conf_1_185.gjf\\0,1\C,0,0.,0.,0.\N,0,1.3401,0.,0
 .\O,0,-0.67921,0.,-1.02114\H,0,-0.4744,-0.00462,0.98045\O,0,1.86881,0.
 00739,-1.03315\\Version=ES64L-G16RevA.03\State=1-A\HF=-243.6996482\RMS
 D=1.110e-09\Dipole=-0.2154324,0.0001069,0.7351684\Quadrupole=-2.030336
 1,1.7990911,0.231245,0.0036648,-2.0138331,0.0113816\PG=C01 [X(C1H1N1O2
 )]\\@


 THE PROBLEM WITH THE LADDER OF SUCCESS IS YOU CAN'T
 CLIMB IT WHILE YOU'RE TWIDDLING YOUR THUMBS.
 Job cpu time:       0 days  0 hours  0 minutes 17.1 seconds.
 Elapsed time:       0 days  0 hours  0 minutes  8.7 seconds.
 File lengths (MBytes):  RWF=      6 Int=      0 D2E=      0 Chk=      1 Scr=      1
 Normal termination of Gaussian 16 at Wed Jun  5 17:02:47 2019.
