 Entering Gaussian System, Link 0=g16
 Initial command:
 /share/apps/gaussian/g16/l1.exe "/tmp/55477.mgr/Gau-325213.inp" -scrdir="/tmp/55477.mgr/"
 Entering Link 1 = /share/apps/gaussian/g16/l1.exe PID=    325214.
  
 Copyright (c) 1988,1990,1992,1993,1995,1998,2003,2009,2016,
            Gaussian, Inc.  All Rights Reserved.
  
 This is part of the Gaussian(R) 16 program.  It is based on
 the Gaussian(R) 09 system (copyright 2009, Gaussian, Inc.),
 the Gaussian(R) 03 system (copyright 2003, Gaussian, Inc.),
 the Gaussian(R) 98 system (copyright 1998, Gaussian, Inc.),
 the Gaussian(R) 94 system (copyright 1995, Gaussian, Inc.),
 the Gaussian 92(TM) system (copyright 1992, Gaussian, Inc.),
 the Gaussian 90(TM) system (copyright 1990, Gaussian, Inc.),
 the Gaussian 88(TM) system (copyright 1988, Gaussian, Inc.),
 the Gaussian 86(TM) system (copyright 1986, Carnegie Mellon
 University), and the Gaussian 82(TM) system (copyright 1983,
 Carnegie Mellon University). Gaussian is a federally registered
 trademark of Gaussian, Inc.
  
 This software contains proprietary and confidential information,
 including trade secrets, belonging to Gaussian, Inc.
  
 This software is provided under written license and may be
 used, copied, transmitted, or stored only in accord with that
 written license.
  
 The following legend is applicable only to US Government
 contracts under FAR:
  
                    RESTRICTED RIGHTS LEGEND
  
 Use, reproduction and disclosure by the US Government is
 subject to restrictions as set forth in subparagraphs (a)
 and (c) of the Commercial Computer Software - Restricted
 Rights clause in FAR 52.227-19.
  
 Gaussian, Inc.
 340 Quinnipiac St., Bldg. 40, Wallingford CT 06492
  
  
 ---------------------------------------------------------------
 Warning -- This program may not be used in any manner that
 competes with the business of Gaussian, Inc. or will provide
 assistance to any competitor of Gaussian, Inc.  The licensee
 of this program is prohibited from giving any competitor of
 Gaussian, Inc. access to this program.  By using this program,
 the user acknowledges that Gaussian, Inc. is engaged in the
 business of creating and licensing software in the field of
 computational chemistry and represents and warrants to the
 licensee that it is not a competitor of Gaussian, Inc. and that
 it will not use this program in any manner prohibited above.
 ---------------------------------------------------------------
  

 Cite this work as:
 Gaussian 16, Revision A.03,
 M. J. Frisch, G. W. Trucks, H. B. Schlegel, G. E. Scuseria, 
 M. A. Robb, J. R. Cheeseman, G. Scalmani, V. Barone, 
 G. A. Petersson, H. Nakatsuji, X. Li, M. Caricato, A. V. Marenich, 
 J. Bloino, B. G. Janesko, R. Gomperts, B. Mennucci, H. P. Hratchian, 
 J. V. Ortiz, A. F. Izmaylov, J. L. Sonnenberg, D. Williams-Young, 
 F. Ding, F. Lipparini, F. Egidi, J. Goings, B. Peng, A. Petrone, 
 T. Henderson, D. Ranasinghe, V. G. Zakrzewski, J. Gao, N. Rega, 
 G. Zheng, W. Liang, M. Hada, M. Ehara, K. Toyota, R. Fukuda, 
 J. Hasegawa, M. Ishida, T. Nakajima, Y. Honda, O. Kitao, H. Nakai, 
 T. Vreven, K. Throssell, J. A. Montgomery, Jr., J. E. Peralta, 
 F. Ogliaro, M. J. Bearpark, J. J. Heyd, E. N. Brothers, K. N. Kudin, 
 V. N. Staroverov, T. A. Keith, R. Kobayashi, J. Normand, 
 K. Raghavachari, A. P. Rendell, J. C. Burant, S. S. Iyengar, 
 J. Tomasi, M. Cossi, J. M. Millam, M. Klene, C. Adamo, R. Cammi, 
 J. W. Ochterski, R. L. Martin, K. Morokuma, O. Farkas, 
 J. B. Foresman, and D. J. Fox, Gaussian, Inc., Wallingford CT, 2016.
 
 ******************************************
 Gaussian 16:  ES64L-G16RevA.03 25-Dec-2016
                 5-Jun-2019 
 ******************************************
 %nprocshared=2
 Will use up to    2 processors via shared memory.
 %mem=2GB
 ----------------
 # 6-31g(d) wb97x
 ----------------
 1/38=1,172=1/1;
 2/12=2,17=6,18=5,40=1/2;
 3/5=1,6=6,7=1,11=2,25=1,30=1,74=-57/1,2,3;
 4//1;
 5/5=2,38=5/2;
 6/7=2,8=2,9=2,10=2,28=1/1;
 99/5=1,9=1/99;
 ------------------------
 tmpdir/M2_conf_1_169.gjf
 ------------------------
 Symbolic Z-matrix:
 Charge =  0 Multiplicity = 1
 C                     0.        0.        0. 
 C                     1.3933    0.        0. 
 H                    -0.54367   0.       -0.92704 
 H                    -0.46974   0.01563   0.89534 
 H                     1.9468   -0.00554  -0.9333 
 H                     1.87709   0.00691   0.87961 
 
                          Input orientation:                          
 ---------------------------------------------------------------------
 Center     Atomic      Atomic             Coordinates (Angstroms)
 Number     Number       Type             X           Y           Z
 ---------------------------------------------------------------------
      1          6           0        0.000000    0.000000    0.000000
      2          6           0        1.393300    0.000000    0.000000
      3          1           0       -0.543670    0.000000   -0.927040
      4          1           0       -0.469740    0.015630    0.895340
      5          1           0        1.946800   -0.005540   -0.933300
      6          1           0        1.877090    0.006910    0.879610
 ---------------------------------------------------------------------
                    Distance matrix (angstroms):
                    1          2          3          4          5
     1  C    0.000000
     2  C    1.393300   0.000000
     3  H    1.074700   2.147384   0.000000
     4  H    1.011204   2.067074   1.823946   0.000000
     5  H    2.158960   1.085100   2.490484   3.030518   0.000000
     6  H    2.072976   1.003900   3.020614   2.346899   1.814292
                    6
     6  H    0.000000
 Stoichiometry    C2H4
 Framework group  C1[X(C2H4)]
 Deg. of freedom    12
 Full point group                 C1      NOp   1
 Largest Abelian subgroup         C1      NOp   1
 Largest concise Abelian subgroup C1      NOp   1
                         Standard orientation:                         
 ---------------------------------------------------------------------
 Center     Atomic      Atomic             Coordinates (Angstroms)
 Number     Number       Type             X           Y           Z
 ---------------------------------------------------------------------
      1          6           0       -0.698152   -0.003417   -0.002111
      2          6           0        0.695141   -0.007232   -0.000100
      3          1           0       -1.239291    0.925081    0.004201
      4          1           0       -1.170355   -0.897561    0.005988
      5          1           0        1.251192    0.924564    0.002302
      6          1           0        1.176520   -0.888191    0.000775
 ---------------------------------------------------------------------
 Rotational constants (GHZ):         151.6896709          28.7984348          24.2036354
 Standard basis: 6-31G(d) (6D, 7F)
 There are    38 symmetry adapted cartesian basis functions of A   symmetry.
 There are    38 symmetry adapted basis functions of A   symmetry.
    38 basis functions,    72 primitive gaussians,    38 cartesian basis functions
     8 alpha electrons        8 beta electrons
       nuclear repulsion energy        33.2423333543 Hartrees.
 NAtoms=    6 NActive=    6 NUniq=    6 SFac= 1.00D+00 NAtFMM=   60 NAOKFM=F Big=F
 Integral buffers will be    131072 words long.
 Raffenetti 2 integral format.
 Two-electron integral symmetry is turned on.
 One-electron integrals computed using PRISM.
 NBasis=    38 RedAO= T EigKep=  8.73D-03  NBF=    38
 NBsUse=    38 1.00D-06 EigRej= -1.00D+00 NBFU=    38
 ExpMin= 1.61D-01 ExpMax= 3.05D+03 ExpMxC= 4.57D+02 IAcc=3 IRadAn=         5 AccDes= 0.00D+00
 Harris functional with IExCor= 4538 and IRadAn=       5 diagonalized for initial guess.
 HarFok:  IExCor= 4538 AccDes= 0.00D+00 IRadAn=         5 IDoV= 1 UseB2=F ITyADJ=14
 ICtDFT=  3500011 ScaDFX=  1.000000  1.000000  1.000000  1.000000
 FoFCou: FMM=F IPFlag=           0 FMFlag=      100000 FMFlg1=           0
         NFxFlg=           0 DoJE=T BraDBF=F KetDBF=T FulRan=T
         wScrn=  0.000000 ICntrl=       500 IOpCl=  0 I1Cent=   200000004 NGrid=           0
         NMat0=    1 NMatS0=      1 NMatT0=    0 NMatD0=    1 NMtDS0=    0 NMtDT0=    0
 Petite list used in FoFCou.
 Keep R1 ints in memory in canonical form, NReq=2276060.
 Requested convergence on RMS density matrix=1.00D-08 within 128 cycles.
 Requested convergence on MAX density matrix=1.00D-06.
 Requested convergence on             energy=1.00D-06.
 No special actions if energy rises.
 Integral accuracy reduced to 1.0D-05 until final iterations.
 Initial convergence to 1.0D-05 achieved.  Increase integral accuracy.
 SCF Done:  E(RwB97X) =  -78.5424055834     A.U. after   11 cycles
            NFock= 11  Conv=0.87D-08     -V/T= 2.0088

 **********************************************************************

            Population analysis using the SCF density.

 **********************************************************************

 Orbital symmetries:
       Occupied  (A) (A) (A) (A) (A) (A) (A) (A)
       Virtual   (A) (A) (A) (A) (A) (A) (A) (A) (A) (A) (A) (A)
                 (A) (A) (A) (A) (A) (A) (A) (A) (A) (A) (A) (A)
                 (A) (A) (A) (A) (A) (A)
 The electronic state is 1-A.
 Alpha  occ. eigenvalues --  -10.26512 -10.26456  -0.87843  -0.70967  -0.58750
 Alpha  occ. eigenvalues --   -0.50675  -0.47621  -0.35612
 Alpha virt. eigenvalues --    0.09981   0.22371   0.26357   0.27286   0.35169
 Alpha virt. eigenvalues --    0.40627   0.59547   0.66657   0.66666   0.74673
 Alpha virt. eigenvalues --    0.75519   0.77797   1.00386   1.00979   1.08238
 Alpha virt. eigenvalues --    1.09679   1.19480   1.36366   1.55444   1.65789
 Alpha virt. eigenvalues --    1.90491   2.03414   2.11606   2.20280   2.43116
 Alpha virt. eigenvalues --    2.44496   2.74926   2.78080   4.21803   4.40273
          Condensed to atoms (all electrons):
               1          2          3          4          5          6
     1  C    4.969474   0.651284   0.387437   0.395377  -0.032998  -0.036604
     2  C    0.651284   4.971324  -0.033297  -0.037495   0.386114   0.395969
     3  H    0.387437  -0.033297   0.514241  -0.032856  -0.005222   0.003907
     4  H    0.395377  -0.037495  -0.032856   0.508235   0.003892  -0.006479
     5  H   -0.032998   0.386114  -0.005222   0.003892   0.519186  -0.034003
     6  H   -0.036604   0.395969   0.003907  -0.006479  -0.034003   0.507491
 Mulliken charges:
               1
     1  C   -0.333969
     2  C   -0.333899
     3  H    0.165790
     4  H    0.169326
     5  H    0.163031
     6  H    0.169720
 Sum of Mulliken charges =  -0.00000
 Mulliken charges with hydrogens summed into heavy atoms:
               1
     1  C    0.001147
     2  C   -0.001147
 Electronic spatial extent (au):  <R**2>=             82.4279
 Charge=              0.0000 electrons
 Dipole moment (field-independent basis, Debye):
    X=              0.0040    Y=             -0.0433    Z=              0.0129  Tot=              0.0453
 Quadrupole moment (field-independent basis, Debye-Ang):
   XX=            -11.9632   YY=            -11.8293   ZZ=            -15.1016
   XY=             -0.0156   XZ=             -0.0088   YZ=             -0.0003
 Traceless Quadrupole moment (field-independent basis, Debye-Ang):
   XX=              1.0015   YY=              1.1354   ZZ=             -2.1369
   XY=             -0.0156   XZ=             -0.0088   YZ=             -0.0003
 Octapole moment (field-independent basis, Debye-Ang**2):
  XXX=              0.0660  YYY=             -0.2116  ZZZ=              0.0196  XYY=             -0.0294
  XXY=              0.1295  XXZ=              0.0280  XZZ=              0.0006  YZZ=             -0.1320
  YYZ=              0.0181  XYZ=              0.0039
 Hexadecapole moment (field-independent basis, Debye-Ang**3):
 XXXX=            -67.4262 YYYY=            -24.2860 ZZZZ=            -15.8434 XXXY=             -0.0660
 XXXZ=             -0.0226 YYYX=             -0.0374 YYYZ=             -0.0007 ZZZX=             -0.0095
 ZZZY=             -0.0012 XXYY=            -12.8588 XXZZ=            -14.6670 YYZZ=             -7.2840
 XXYZ=              0.0013 YYXZ=             -0.0126 ZZXY=             -0.0224
 N-N= 3.324233335426D+01 E-N=-2.478527314337D+02  KE= 7.785703147334D+01
 1\1\GINC-NODE91\SP\RwB97X\6-31G(d)\C2H4\YANZ\05-Jun-2019\0\\# 6-31g(d)
  wb97x\\tmpdir/M2_conf_1_169.gjf\\0,1\C,0,0.,0.,0.\C,0,1.3933,0.,0.\H,
 0,-0.54367,0.,-0.92704\H,0,-0.46974,0.01563,0.89534\H,0,1.9468,-0.0055
 4,-0.9333\H,0,1.87709,0.00691,0.87961\\Version=ES64L-G16RevA.03\State=
 1-A\HF=-78.5424056\RMSD=8.672e-09\Dipole=0.001616,0.0051859,0.0169816\
 Quadrupole=0.7446542,-1.5885558,0.8439016,-0.0098501,0.0119245,0.01886
 16\PG=C01 [X(C2H4)]\\@


 THE WORLD OF CHEMICAL REACTIONS IS LIKE A STAGE,
 ON WHICH SCENE AFTER SCENE IS CEASELESSLY PLAYED.
 THE ACTORS ON IT ARE THE ELEMENTS.
   -- CLEMENS WINKLER   BER. 30,13(1897)
 (DISCOVERER OF GERMANIUM, FEB 6, 1886)
 Job cpu time:       0 days  0 hours  0 minutes  6.1 seconds.
 Elapsed time:       0 days  0 hours  0 minutes  3.1 seconds.
 File lengths (MBytes):  RWF=      6 Int=      0 D2E=      0 Chk=      1 Scr=      1
 Normal termination of Gaussian 16 at Wed Jun  5 17:03:25 2019.
