 Entering Gaussian System, Link 0=g16
 Initial command:
 /share/apps/gaussian/g16/l1.exe "/tmp/55477.mgr/Gau-320832.inp" -scrdir="/tmp/55477.mgr/"
 Entering Link 1 = /share/apps/gaussian/g16/l1.exe PID=    320833.
  
 Copyright (c) 1988,1990,1992,1993,1995,1998,2003,2009,2016,
            Gaussian, Inc.  All Rights Reserved.
  
 This is part of the Gaussian(R) 16 program.  It is based on
 the Gaussian(R) 09 system (copyright 2009, Gaussian, Inc.),
 the Gaussian(R) 03 system (copyright 2003, Gaussian, Inc.),
 the Gaussian(R) 98 system (copyright 1998, Gaussian, Inc.),
 the Gaussian(R) 94 system (copyright 1995, Gaussian, Inc.),
 the Gaussian 92(TM) system (copyright 1992, Gaussian, Inc.),
 the Gaussian 90(TM) system (copyright 1990, Gaussian, Inc.),
 the Gaussian 88(TM) system (copyright 1988, Gaussian, Inc.),
 the Gaussian 86(TM) system (copyright 1986, Carnegie Mellon
 University), and the Gaussian 82(TM) system (copyright 1983,
 Carnegie Mellon University). Gaussian is a federally registered
 trademark of Gaussian, Inc.
  
 This software contains proprietary and confidential information,
 including trade secrets, belonging to Gaussian, Inc.
  
 This software is provided under written license and may be
 used, copied, transmitted, or stored only in accord with that
 written license.
  
 The following legend is applicable only to US Government
 contracts under FAR:
  
                    RESTRICTED RIGHTS LEGEND
  
 Use, reproduction and disclosure by the US Government is
 subject to restrictions as set forth in subparagraphs (a)
 and (c) of the Commercial Computer Software - Restricted
 Rights clause in FAR 52.227-19.
  
 Gaussian, Inc.
 340 Quinnipiac St., Bldg. 40, Wallingford CT 06492
  
  
 ---------------------------------------------------------------
 Warning -- This program may not be used in any manner that
 competes with the business of Gaussian, Inc. or will provide
 assistance to any competitor of Gaussian, Inc.  The licensee
 of this program is prohibited from giving any competitor of
 Gaussian, Inc. access to this program.  By using this program,
 the user acknowledges that Gaussian, Inc. is engaged in the
 business of creating and licensing software in the field of
 computational chemistry and represents and warrants to the
 licensee that it is not a competitor of Gaussian, Inc. and that
 it will not use this program in any manner prohibited above.
 ---------------------------------------------------------------
  

 Cite this work as:
 Gaussian 16, Revision A.03,
 M. J. Frisch, G. W. Trucks, H. B. Schlegel, G. E. Scuseria, 
 M. A. Robb, J. R. Cheeseman, G. Scalmani, V. Barone, 
 G. A. Petersson, H. Nakatsuji, X. Li, M. Caricato, A. V. Marenich, 
 J. Bloino, B. G. Janesko, R. Gomperts, B. Mennucci, H. P. Hratchian, 
 J. V. Ortiz, A. F. Izmaylov, J. L. Sonnenberg, D. Williams-Young, 
 F. Ding, F. Lipparini, F. Egidi, J. Goings, B. Peng, A. Petrone, 
 T. Henderson, D. Ranasinghe, V. G. Zakrzewski, J. Gao, N. Rega, 
 G. Zheng, W. Liang, M. Hada, M. Ehara, K. Toyota, R. Fukuda, 
 J. Hasegawa, M. Ishida, T. Nakajima, Y. Honda, O. Kitao, H. Nakai, 
 T. Vreven, K. Throssell, J. A. Montgomery, Jr., J. E. Peralta, 
 F. Ogliaro, M. J. Bearpark, J. J. Heyd, E. N. Brothers, K. N. Kudin, 
 V. N. Staroverov, T. A. Keith, R. Kobayashi, J. Normand, 
 K. Raghavachari, A. P. Rendell, J. C. Burant, S. S. Iyengar, 
 J. Tomasi, M. Cossi, J. M. Millam, M. Klene, C. Adamo, R. Cammi, 
 J. W. Ochterski, R. L. Martin, K. Morokuma, O. Farkas, 
 J. B. Foresman, and D. J. Fox, Gaussian, Inc., Wallingford CT, 2016.
 
 ******************************************
 Gaussian 16:  ES64L-G16RevA.03 25-Dec-2016
                 5-Jun-2019 
 ******************************************
 %nprocshared=2
 Will use up to    2 processors via shared memory.
 %mem=2GB
 ----------------
 # 6-31g(d) wb97x
 ----------------
 1/38=1,172=1/1;
 2/12=2,17=6,18=5,40=1/2;
 3/5=1,6=6,7=1,11=2,25=1,30=1,74=-57/1,2,3;
 4//1;
 5/5=2,38=5/2;
 6/7=2,8=2,9=2,10=2,28=1/1;
 99/5=1,9=1/99;
 -----------------------
 tmpdir/M2_conf_0_80.gjf
 -----------------------
 Symbolic Z-matrix:
 Charge =  0 Multiplicity = 1
 C                     0.        0.        0. 
 C                     1.3948    0.        0. 
 C                    -0.71372   0.       -1.19871 
 H                    -0.53909  -0.00116   0.94551 
 H                     1.9564   -0.0125    0.92979 
 C                     2.09847   0.02668  -1.20341 
 
                          Input orientation:                          
 ---------------------------------------------------------------------
 Center     Atomic      Atomic             Coordinates (Angstroms)
 Number     Number       Type             X           Y           Z
 ---------------------------------------------------------------------
      1          6           0        0.000000    0.000000    0.000000
      2          6           0        1.394800    0.000000    0.000000
      3          6           0       -0.713720    0.000000   -1.198710
      4          1           0       -0.539090   -0.001160    0.945510
      5          1           0        1.956400   -0.012500    0.929790
      6          6           0        2.098470    0.026680   -1.203410
 ---------------------------------------------------------------------
                    Distance matrix (angstroms):
                    1          2          3          4          5
     1  C    0.000000
     2  C    1.394800   0.000000
     3  C    1.395099   2.425441   0.000000
     4  H    1.088397   2.152654   2.151320   0.000000
     5  H    2.166141   1.086306   3.414705   2.495565   0.000000
     6  C    2.419191   1.394295   2.812320   3.402257   2.138285
                    6
     6  C    0.000000
 Stoichiometry    C4H2
 Framework group  C1[X(C4H2)]
 Deg. of freedom    12
 Full point group                 C1      NOp   1
 Largest Abelian subgroup         C1      NOp   1
 Largest concise Abelian subgroup C1      NOp   1
                         Standard orientation:                         
 ---------------------------------------------------------------------
 Center     Atomic      Atomic             Coordinates (Angstroms)
 Number     Number       Type             X           Y           Z
 ---------------------------------------------------------------------
      1          6           0        0.695596    0.482732    0.003842
      2          6           0       -0.699175    0.481748   -0.005137
      3          6           0        1.410226   -0.715410   -0.003976
      4          1           0        1.233952    1.428583    0.015943
      5          1           0       -1.261401    1.411221   -0.011623
      6          6           0       -1.402073   -0.722370    0.004550
 ---------------------------------------------------------------------
 Rotational constants (GHZ):          23.0857196           8.1164012           6.0053215
 Standard basis: 6-31G(d) (6D, 7F)
 There are    64 symmetry adapted cartesian basis functions of A   symmetry.
 There are    64 symmetry adapted basis functions of A   symmetry.
    64 basis functions,   120 primitive gaussians,    64 cartesian basis functions
    13 alpha electrons       13 beta electrons
       nuclear repulsion energy        77.2959841699 Hartrees.
 NAtoms=    6 NActive=    6 NUniq=    6 SFac= 1.00D+00 NAtFMM=   60 NAOKFM=F Big=F
 Integral buffers will be    131072 words long.
 Raffenetti 2 integral format.
 Two-electron integral symmetry is turned on.
 One-electron integrals computed using PRISM.
 NBasis=    64 RedAO= T EigKep=  3.11D-03  NBF=    64
 NBsUse=    64 1.00D-06 EigRej= -1.00D+00 NBFU=    64
 ExpMin= 1.61D-01 ExpMax= 3.05D+03 ExpMxC= 4.57D+02 IAcc=3 IRadAn=         5 AccDes= 0.00D+00
 Harris functional with IExCor= 4538 and IRadAn=       5 diagonalized for initial guess.
 HarFok:  IExCor= 4538 AccDes= 0.00D+00 IRadAn=         5 IDoV= 1 UseB2=F ITyADJ=14
 ICtDFT=  3500011 ScaDFX=  1.000000  1.000000  1.000000  1.000000
 FoFCou: FMM=F IPFlag=           0 FMFlag=      100000 FMFlg1=           0
         NFxFlg=           0 DoJE=T BraDBF=F KetDBF=T FulRan=T
         wScrn=  0.000000 ICntrl=       500 IOpCl=  0 I1Cent=   200000004 NGrid=           0
         NMat0=    1 NMatS0=      1 NMatT0=    0 NMatD0=    1 NMtDS0=    0 NMtDT0=    0
 Petite list used in FoFCou.
 Keep R1 ints in memory in canonical form, NReq=6104720.
 Requested convergence on RMS density matrix=1.00D-08 within 128 cycles.
 Requested convergence on MAX density matrix=1.00D-06.
 Requested convergence on             energy=1.00D-06.
 No special actions if energy rises.
 Integral accuracy reduced to 1.0D-05 until final iterations.
 Initial convergence to 1.0D-05 achieved.  Increase integral accuracy.
 SCF Done:  E(RwB97X) =  -153.247647893     A.U. after   18 cycles
            NFock= 18  Conv=0.29D-08     -V/T= 2.0098

 **********************************************************************

            Population analysis using the SCF density.

 **********************************************************************

 Orbital symmetries:
       Occupied  (A) (A) (A) (A) (A) (A) (A) (A) (A) (A) (A) (A)
                 (A)
       Virtual   (A) (A) (A) (A) (A) (A) (A) (A) (A) (A) (A) (A)
                 (A) (A) (A) (A) (A) (A) (A) (A) (A) (A) (A) (A)
                 (A) (A) (A) (A) (A) (A) (A) (A) (A) (A) (A) (A)
                 (A) (A) (A) (A) (A) (A) (A) (A) (A) (A) (A) (A)
                 (A) (A) (A)
 The electronic state is 1-A.
 Alpha  occ. eigenvalues --  -10.36263 -10.36232 -10.31247 -10.31183  -0.97911
 Alpha  occ. eigenvalues --   -0.84629  -0.72241  -0.60420  -0.59493  -0.46698
 Alpha  occ. eigenvalues --   -0.42469  -0.40088  -0.33283
 Alpha virt. eigenvalues --   -0.03277   0.00403   0.02586   0.16818   0.20915
 Alpha virt. eigenvalues --    0.25058   0.35183   0.45996   0.47943   0.58277
 Alpha virt. eigenvalues --    0.60889   0.62972   0.66133   0.66642   0.69153
 Alpha virt. eigenvalues --    0.70115   0.71255   0.72947   0.77627   0.80393
 Alpha virt. eigenvalues --    0.83705   0.93922   0.97215   1.04570   1.06255
 Alpha virt. eigenvalues --    1.22873   1.33721   1.41023   1.50751   1.59703
 Alpha virt. eigenvalues --    1.75074   1.77547   1.83848   1.84215   1.85227
 Alpha virt. eigenvalues --    1.97377   1.97952   2.08222   2.25284   2.30280
 Alpha virt. eigenvalues --    2.31333   2.37823   2.57977   2.62276   2.67222
 Alpha virt. eigenvalues --    2.88124   3.05981   4.06208   4.13355   4.24420
 Alpha virt. eigenvalues --    4.51983
          Condensed to atoms (all electrons):
               1          2          3          4          5          6
     1  C    5.093830   0.378030   0.512653   0.348161  -0.016161  -0.045584
     2  C    0.378030   5.093701  -0.045666  -0.017217   0.347956   0.513137
     3  C    0.512653  -0.045666   5.509014  -0.014093   0.002800   0.000129
     4  H    0.348161  -0.017217  -0.014093   0.452226  -0.007178   0.002865
     5  H   -0.016161   0.347956   0.002800  -0.007178   0.451956  -0.014651
     6  C   -0.045584   0.513137   0.000129   0.002865  -0.014651   5.508907
 Mulliken charges:
               1
     1  C   -0.270929
     2  C   -0.269942
     3  C    0.035162
     4  H    0.235235
     5  H    0.235277
     6  C    0.035197
 Sum of Mulliken charges =  -0.00000
 Mulliken charges with hydrogens summed into heavy atoms:
               1
     1  C   -0.035694
     2  C   -0.034665
     3  C    0.035162
     6  C    0.035197
 Electronic spatial extent (au):  <R**2>=            217.6148
 Charge=             -0.0000 electrons
 Dipole moment (field-independent basis, Debye):
    X=             -0.0309    Y=              3.4391    Z=              0.0044  Tot=              3.4392
 Quadrupole moment (field-independent basis, Debye-Ang):
   XX=            -24.3373   YY=            -23.3646   ZZ=            -25.4769
   XY=             -0.0142   XZ=              0.0911   YZ=              0.0118
 Traceless Quadrupole moment (field-independent basis, Debye-Ang):
   XX=              0.0557   YY=              1.0283   ZZ=             -1.0840
   XY=             -0.0142   XZ=              0.0911   YZ=              0.0118
 Octapole moment (field-independent basis, Debye-Ang**2):
  XXX=             -0.3049  YYY=             14.4350  ZZZ=              0.0051  XYY=              0.0199
  XXY=             13.7799  XXZ=              0.0190  XZZ=             -0.0214  YZZ=              1.7037
  YYZ=              0.0091  XYZ=              0.0066
 Hexadecapole moment (field-independent basis, Debye-Ang**3):
 XXXX=           -200.9434 YYYY=            -91.6530 ZZZZ=            -27.3095 XXXY=              0.0071
 XXXZ=              0.4441 YYYX=             -0.0657 YYYZ=              0.0346 ZZZX=              0.0840
 ZZZY=              0.0103 XXYY=            -58.1073 XXZZ=            -41.8001 YYZZ=            -20.8473
 XXYZ=              0.0190 YYXZ=              0.1320 ZZXY=             -0.0070
 N-N= 7.729598416987D+01 E-N=-5.091759056661D+02  KE= 1.517554903843D+02
 1\1\GINC-NODE91\SP\RwB97X\6-31G(d)\C4H2\YANZ\05-Jun-2019\0\\# 6-31g(d)
  wb97x\\tmpdir/M2_conf_0_80.gjf\\0,1\C,0,0.,0.,0.\C,0,1.3948,0.,0.\C,0
 ,-0.71372,0.,-1.19871\H,0,-0.53909,-0.00116,0.94551\H,0,1.9564,-0.0125
 ,0.92979\C,0,2.09847,0.02668,-1.20341\\Version=ES64L-G16RevA.03\State=
 1-A\HF=-153.2476479\RMSD=2.896e-09\Dipole=0.0112034,-0.0122049,1.35299
 75\Quadrupole=0.0422,-0.8067639,0.7645639,-0.0623602,0.0093661,-0.0074
 83\PG=C01 [X(C4H2)]\\@


 FORGIVE MY NONSENSE AS I ALSO FORGIVE THOSE WHO THINK THEY TALK SENSE

                                                       -- ROBERT FROST
 Job cpu time:       0 days  0 hours  0 minutes 17.5 seconds.
 Elapsed time:       0 days  0 hours  0 minutes  8.9 seconds.
 File lengths (MBytes):  RWF=      6 Int=      0 D2E=      0 Chk=      1 Scr=      1
 Normal termination of Gaussian 16 at Wed Jun  5 16:59:44 2019.
