 Entering Gaussian System, Link 0=g16
 Initial command:
 /share/apps/gaussian/g16/l1.exe "/tmp/55477.mgr/Gau-324099.inp" -scrdir="/tmp/55477.mgr/"
 Entering Link 1 = /share/apps/gaussian/g16/l1.exe PID=    324100.
  
 Copyright (c) 1988,1990,1992,1993,1995,1998,2003,2009,2016,
            Gaussian, Inc.  All Rights Reserved.
  
 This is part of the Gaussian(R) 16 program.  It is based on
 the Gaussian(R) 09 system (copyright 2009, Gaussian, Inc.),
 the Gaussian(R) 03 system (copyright 2003, Gaussian, Inc.),
 the Gaussian(R) 98 system (copyright 1998, Gaussian, Inc.),
 the Gaussian(R) 94 system (copyright 1995, Gaussian, Inc.),
 the Gaussian 92(TM) system (copyright 1992, Gaussian, Inc.),
 the Gaussian 90(TM) system (copyright 1990, Gaussian, Inc.),
 the Gaussian 88(TM) system (copyright 1988, Gaussian, Inc.),
 the Gaussian 86(TM) system (copyright 1986, Carnegie Mellon
 University), and the Gaussian 82(TM) system (copyright 1983,
 Carnegie Mellon University). Gaussian is a federally registered
 trademark of Gaussian, Inc.
  
 This software contains proprietary and confidential information,
 including trade secrets, belonging to Gaussian, Inc.
  
 This software is provided under written license and may be
 used, copied, transmitted, or stored only in accord with that
 written license.
  
 The following legend is applicable only to US Government
 contracts under FAR:
  
                    RESTRICTED RIGHTS LEGEND
  
 Use, reproduction and disclosure by the US Government is
 subject to restrictions as set forth in subparagraphs (a)
 and (c) of the Commercial Computer Software - Restricted
 Rights clause in FAR 52.227-19.
  
 Gaussian, Inc.
 340 Quinnipiac St., Bldg. 40, Wallingford CT 06492
  
  
 ---------------------------------------------------------------
 Warning -- This program may not be used in any manner that
 competes with the business of Gaussian, Inc. or will provide
 assistance to any competitor of Gaussian, Inc.  The licensee
 of this program is prohibited from giving any competitor of
 Gaussian, Inc. access to this program.  By using this program,
 the user acknowledges that Gaussian, Inc. is engaged in the
 business of creating and licensing software in the field of
 computational chemistry and represents and warrants to the
 licensee that it is not a competitor of Gaussian, Inc. and that
 it will not use this program in any manner prohibited above.
 ---------------------------------------------------------------
  

 Cite this work as:
 Gaussian 16, Revision A.03,
 M. J. Frisch, G. W. Trucks, H. B. Schlegel, G. E. Scuseria, 
 M. A. Robb, J. R. Cheeseman, G. Scalmani, V. Barone, 
 G. A. Petersson, H. Nakatsuji, X. Li, M. Caricato, A. V. Marenich, 
 J. Bloino, B. G. Janesko, R. Gomperts, B. Mennucci, H. P. Hratchian, 
 J. V. Ortiz, A. F. Izmaylov, J. L. Sonnenberg, D. Williams-Young, 
 F. Ding, F. Lipparini, F. Egidi, J. Goings, B. Peng, A. Petrone, 
 T. Henderson, D. Ranasinghe, V. G. Zakrzewski, J. Gao, N. Rega, 
 G. Zheng, W. Liang, M. Hada, M. Ehara, K. Toyota, R. Fukuda, 
 J. Hasegawa, M. Ishida, T. Nakajima, Y. Honda, O. Kitao, H. Nakai, 
 T. Vreven, K. Throssell, J. A. Montgomery, Jr., J. E. Peralta, 
 F. Ogliaro, M. J. Bearpark, J. J. Heyd, E. N. Brothers, K. N. Kudin, 
 V. N. Staroverov, T. A. Keith, R. Kobayashi, J. Normand, 
 K. Raghavachari, A. P. Rendell, J. C. Burant, S. S. Iyengar, 
 J. Tomasi, M. Cossi, J. M. Millam, M. Klene, C. Adamo, R. Cammi, 
 J. W. Ochterski, R. L. Martin, K. Morokuma, O. Farkas, 
 J. B. Foresman, and D. J. Fox, Gaussian, Inc., Wallingford CT, 2016.
 
 ******************************************
 Gaussian 16:  ES64L-G16RevA.03 25-Dec-2016
                 5-Jun-2019 
 ******************************************
 %nprocshared=2
 Will use up to    2 processors via shared memory.
 %mem=2GB
 ----------------
 # 6-31g(d) wb97x
 ----------------
 1/38=1,172=1/1;
 2/12=2,17=6,18=5,40=1/2;
 3/5=1,6=6,7=1,11=2,25=1,30=1,74=-57/1,2,3;
 4//1;
 5/5=2,38=5/2;
 6/7=2,8=2,9=2,10=2,28=1/1;
 99/5=1,9=1/99;
 -----------------------
 tmpdir/M2_conf_1_92.gjf
 -----------------------
 Symbolic Z-matrix:
 Charge =  0 Multiplicity = 1
 C                     0.        0.        0. 
 C                     1.3943    0.        0. 
 C                     2.10343   0.        1.32474 
 H                    -0.50735   0.00045  -0.86788 
 H                    -0.51934   0.00783   0.95408 
 H                     1.88629  -0.02082  -0.88331 
 O                     1.56412  -0.4395    2.329 
 H                     3.09332   0.42302   1.309 
 
                          Input orientation:                          
 ---------------------------------------------------------------------
 Center     Atomic      Atomic             Coordinates (Angstroms)
 Number     Number       Type             X           Y           Z
 ---------------------------------------------------------------------
      1          6           0        0.000000    0.000000    0.000000
      2          6           0        1.394300    0.000000    0.000000
      3          6           0        2.103430    0.000000    1.324740
      4          1           0       -0.507350    0.000450   -0.867880
      5          1           0       -0.519340    0.007830    0.954080
      6          1           0        1.886290   -0.020820   -0.883310
      7          8           0        1.564120   -0.439500    2.329000
      8          1           0        3.093320    0.423020    1.309000
 ---------------------------------------------------------------------
                    Distance matrix (angstroms):
                    1          2          3          4          5
     1  C    0.000000
     2  C    1.394300   0.000000
     3  C    2.485831   1.502598   0.000000
     4  H    1.005296   2.090332   3.409363   0.000000
     5  H    1.086298   2.138305   2.648844   1.822014   0.000000
     6  H    2.082969   1.011298   2.218799   2.393784   3.027190
     7  O    2.839696   2.376182   1.221701   3.834656   2.536004
     8  H    3.385418   2.186114   1.076604   4.228735   3.653719
                    6          7          8
     6  H    0.000000
     7  O    3.255460   0.000000
     8  H    2.541680   2.030466   0.000000
 Stoichiometry    C3H4O
 Framework group  C1[X(C3H4O)]
 Deg. of freedom    18
 Full point group                 C1      NOp   1
 Largest Abelian subgroup         C1      NOp   1
 Largest concise Abelian subgroup C1      NOp   1
                         Standard orientation:                         
 ---------------------------------------------------------------------
 Center     Atomic      Atomic             Coordinates (Angstroms)
 Number     Number       Type             X           Y           Z
 ---------------------------------------------------------------------
      1          6           0       -1.466856   -0.479815    0.053860
      2          6           0       -0.652794    0.644462   -0.077957
      3          6           0        0.829416    0.471273    0.097715
      4          1           0       -2.462917   -0.400763   -0.056744
      5          1           0       -1.001504   -1.433687    0.285423
      6          1           0       -1.075821    1.534102   -0.306679
      7          8           0        1.365873   -0.608872   -0.097360
      8          1           0        1.354667    1.355809    0.415179
 ---------------------------------------------------------------------
 Rotational constants (GHZ):          21.6106182           6.3308555           4.9653317
 Standard basis: 6-31G(d) (6D, 7F)
 There are    68 symmetry adapted cartesian basis functions of A   symmetry.
 There are    68 symmetry adapted basis functions of A   symmetry.
    68 basis functions,   128 primitive gaussians,    68 cartesian basis functions
    15 alpha electrons       15 beta electrons
       nuclear repulsion energy       104.4027340988 Hartrees.
 NAtoms=    8 NActive=    8 NUniq=    8 SFac= 1.00D+00 NAtFMM=   60 NAOKFM=F Big=F
 Integral buffers will be    131072 words long.
 Raffenetti 2 integral format.
 Two-electron integral symmetry is turned on.
 One-electron integrals computed using PRISM.
 NBasis=    68 RedAO= T EigKep=  3.82D-03  NBF=    68
 NBsUse=    68 1.00D-06 EigRej= -1.00D+00 NBFU=    68
 ExpMin= 1.61D-01 ExpMax= 5.48D+03 ExpMxC= 8.25D+02 IAcc=3 IRadAn=         5 AccDes= 0.00D+00
 Harris functional with IExCor= 4538 and IRadAn=       5 diagonalized for initial guess.
 HarFok:  IExCor= 4538 AccDes= 0.00D+00 IRadAn=         5 IDoV= 1 UseB2=F ITyADJ=14
 ICtDFT=  3500011 ScaDFX=  1.000000  1.000000  1.000000  1.000000
 FoFCou: FMM=F IPFlag=           0 FMFlag=      100000 FMFlg1=           0
         NFxFlg=           0 DoJE=T BraDBF=F KetDBF=T FulRan=T
         wScrn=  0.000000 ICntrl=       500 IOpCl=  0 I1Cent=   200000004 NGrid=           0
         NMat0=    1 NMatS0=      1 NMatT0=    0 NMatD0=    1 NMtDS0=    0 NMtDT0=    0
 Petite list used in FoFCou.
 Keep R1 ints in memory in canonical form, NReq=7290824.
 Requested convergence on RMS density matrix=1.00D-08 within 128 cycles.
 Requested convergence on MAX density matrix=1.00D-06.
 Requested convergence on             energy=1.00D-06.
 No special actions if energy rises.
 Integral accuracy reduced to 1.0D-05 until final iterations.
 Initial convergence to 1.0D-05 achieved.  Increase integral accuracy.
 SCF Done:  E(RwB97X) =  -191.835452718     A.U. after   16 cycles
            NFock= 16  Conv=0.73D-08     -V/T= 2.0088

 **********************************************************************

            Population analysis using the SCF density.

 **********************************************************************

 Orbital symmetries:
       Occupied  (A) (A) (A) (A) (A) (A) (A) (A) (A) (A) (A) (A)
                 (A) (A) (A)
       Virtual   (A) (A) (A) (A) (A) (A) (A) (A) (A) (A) (A) (A)
                 (A) (A) (A) (A) (A) (A) (A) (A) (A) (A) (A) (A)
                 (A) (A) (A) (A) (A) (A) (A) (A) (A) (A) (A) (A)
                 (A) (A) (A) (A) (A) (A) (A) (A) (A) (A) (A) (A)
                 (A) (A) (A) (A) (A)
 The electronic state is 1-A.
 Alpha  occ. eigenvalues --  -19.21667 -10.36416 -10.29133 -10.28578  -1.16574
 Alpha  occ. eigenvalues --   -0.91287  -0.78378  -0.67781  -0.62939  -0.55174
 Alpha  occ. eigenvalues --   -0.53455  -0.50217  -0.49315  -0.37348  -0.35866
 Alpha virt. eigenvalues --    0.02519   0.14326   0.22640   0.23470   0.26670
 Alpha virt. eigenvalues --    0.30141   0.35663   0.40085   0.42727   0.62382
 Alpha virt. eigenvalues --    0.63067   0.67990   0.68970   0.70062   0.74928
 Alpha virt. eigenvalues --    0.76028   0.79613   0.91470   0.95533   0.98693
 Alpha virt. eigenvalues --    1.02413   1.04063   1.05733   1.11182   1.13612
 Alpha virt. eigenvalues --    1.19224   1.22147   1.38537   1.47820   1.57331
 Alpha virt. eigenvalues --    1.63595   1.64679   1.75684   1.83614   1.92247
 Alpha virt. eigenvalues --    1.94613   2.07499   2.09370   2.14620   2.26665
 Alpha virt. eigenvalues --    2.30833   2.34578   2.46630   2.59987   2.68341
 Alpha virt. eigenvalues --    2.69452   2.83883   3.02165   3.12038   3.94192
 Alpha virt. eigenvalues --    4.18041   4.27890   4.50840
          Condensed to atoms (all electrons):
               1          2          3          4          5          6
     1  C    5.006066   0.601293  -0.024899   0.382831   0.381620  -0.038596
     2  C    0.601293   5.166302   0.334417  -0.032398  -0.039124   0.371270
     3  C   -0.024899   0.334417   4.578171   0.003466  -0.006722  -0.026764
     4  H    0.382831  -0.032398   0.003466   0.494112  -0.028646  -0.003523
     5  H    0.381620  -0.039124  -0.006722  -0.028646   0.476861   0.003933
     6  H   -0.038596   0.371270  -0.026764  -0.003523   0.003933   0.514432
     7  O    0.001269  -0.090930   0.564784   0.000448   0.010497   0.002589
     8  H    0.006257  -0.106713   0.366054  -0.000062   0.000616   0.002450
               7          8
     1  C    0.001269   0.006257
     2  C   -0.090930  -0.106713
     3  C    0.564784   0.366054
     4  H    0.000448  -0.000062
     5  H    0.010497   0.000616
     6  H    0.002589   0.002450
     7  O    7.952192  -0.048598
     8  H   -0.048598   0.638226
 Mulliken charges:
               1
     1  C   -0.315841
     2  C   -0.204117
     3  C    0.211491
     4  H    0.183773
     5  H    0.200964
     6  H    0.174210
     7  O   -0.392250
     8  H    0.141769
 Sum of Mulliken charges =  -0.00000
 Mulliken charges with hydrogens summed into heavy atoms:
               1
     1  C    0.068896
     2  C   -0.029907
     3  C    0.353261
     7  O   -0.392250
 Electronic spatial extent (au):  <R**2>=            264.8340
 Charge=             -0.0000 electrons
 Dipole moment (field-independent basis, Debye):
    X=             -1.9243    Y=              1.7780    Z=              0.3706  Tot=              2.6461
 Quadrupole moment (field-independent basis, Debye-Ang):
   XX=            -23.5130   YY=            -21.7076   ZZ=            -24.2468
   XY=              2.9369   XZ=              0.7043   YZ=             -0.6195
 Traceless Quadrupole moment (field-independent basis, Debye-Ang):
   XX=             -0.3572   YY=              1.4482   ZZ=             -1.0910
   XY=              2.9369   XZ=              0.7043   YZ=             -0.6195
 Octapole moment (field-independent basis, Debye-Ang**2):
  XXX=             -5.5963  YYY=             -0.5138  ZZZ=             -0.2817  XYY=             -0.0319
  XXY=              2.3573  XXZ=             -0.3385  XZZ=              3.4330  YZZ=             -0.6923
  YYZ=              0.2015  XYZ=              0.7083
 Hexadecapole moment (field-independent basis, Debye-Ang**3):
 XXXX=           -213.8513 YYYY=            -80.8606 ZZZZ=            -25.2642 XXXY=              3.8781
 XXXZ=              1.8150 YYYX=             -1.7656 YYYZ=             -1.3750 ZZZX=             -0.2142
 ZZZY=             -0.0758 XXYY=            -50.1294 XXZZ=            -42.5670 YYZZ=            -18.6138
 XXYZ=             -0.3500 YYXZ=              0.8605 ZZXY=             -0.7646
 N-N= 1.044027340988D+02 E-N=-6.561870633941D+02  KE= 1.901643141123D+02
 1\1\GINC-NODE91\SP\RwB97X\6-31G(d)\C3H4O1\YANZ\05-Jun-2019\0\\# 6-31g(
 d) wb97x\\tmpdir/M2_conf_1_92.gjf\\0,1\C,0,0.,0.,0.\C,0,1.3943,0.,0.\C
 ,0,2.10343,0.,1.32474\H,0,-0.50735,0.00045,-0.86788\H,0,-0.51934,0.007
 83,0.95408\H,0,1.88629,-0.02082,-0.88331\O,0,1.56412,-0.4395,2.329\H,0
 ,3.09332,0.42302,1.309\\Version=ES64L-G16RevA.03\State=1-A\HF=-191.835
 4527\RMSD=7.254e-09\Dipole=0.1082366,0.3424187,-0.9771354\Quadrupole=2
 .6706236,-1.0805941,-1.5900296,0.2642126,0.0271026,0.844657\PG=C01 [X(
 C3H4O1)]\\@


 SUCCESS IS NEVER CERTAIN,
 FAILURE IS NEVER FINAL.
 Job cpu time:       0 days  0 hours  0 minutes 21.0 seconds.
 Elapsed time:       0 days  0 hours  0 minutes 10.7 seconds.
 File lengths (MBytes):  RWF=      6 Int=      0 D2E=      0 Chk=      1 Scr=      1
 Normal termination of Gaussian 16 at Wed Jun  5 17:02:24 2019.
