 Entering Gaussian System, Link 0=g16
 Initial command:
 /share/apps/gaussian/g16/l1.exe "/tmp/55477.mgr/Gau-319567.inp" -scrdir="/tmp/55477.mgr/"
 Entering Link 1 = /share/apps/gaussian/g16/l1.exe PID=    319568.
  
 Copyright (c) 1988,1990,1992,1993,1995,1998,2003,2009,2016,
            Gaussian, Inc.  All Rights Reserved.
  
 This is part of the Gaussian(R) 16 program.  It is based on
 the Gaussian(R) 09 system (copyright 2009, Gaussian, Inc.),
 the Gaussian(R) 03 system (copyright 2003, Gaussian, Inc.),
 the Gaussian(R) 98 system (copyright 1998, Gaussian, Inc.),
 the Gaussian(R) 94 system (copyright 1995, Gaussian, Inc.),
 the Gaussian 92(TM) system (copyright 1992, Gaussian, Inc.),
 the Gaussian 90(TM) system (copyright 1990, Gaussian, Inc.),
 the Gaussian 88(TM) system (copyright 1988, Gaussian, Inc.),
 the Gaussian 86(TM) system (copyright 1986, Carnegie Mellon
 University), and the Gaussian 82(TM) system (copyright 1983,
 Carnegie Mellon University). Gaussian is a federally registered
 trademark of Gaussian, Inc.
  
 This software contains proprietary and confidential information,
 including trade secrets, belonging to Gaussian, Inc.
  
 This software is provided under written license and may be
 used, copied, transmitted, or stored only in accord with that
 written license.
  
 The following legend is applicable only to US Government
 contracts under FAR:
  
                    RESTRICTED RIGHTS LEGEND
  
 Use, reproduction and disclosure by the US Government is
 subject to restrictions as set forth in subparagraphs (a)
 and (c) of the Commercial Computer Software - Restricted
 Rights clause in FAR 52.227-19.
  
 Gaussian, Inc.
 340 Quinnipiac St., Bldg. 40, Wallingford CT 06492
  
  
 ---------------------------------------------------------------
 Warning -- This program may not be used in any manner that
 competes with the business of Gaussian, Inc. or will provide
 assistance to any competitor of Gaussian, Inc.  The licensee
 of this program is prohibited from giving any competitor of
 Gaussian, Inc. access to this program.  By using this program,
 the user acknowledges that Gaussian, Inc. is engaged in the
 business of creating and licensing software in the field of
 computational chemistry and represents and warrants to the
 licensee that it is not a competitor of Gaussian, Inc. and that
 it will not use this program in any manner prohibited above.
 ---------------------------------------------------------------
  

 Cite this work as:
 Gaussian 16, Revision A.03,
 M. J. Frisch, G. W. Trucks, H. B. Schlegel, G. E. Scuseria, 
 M. A. Robb, J. R. Cheeseman, G. Scalmani, V. Barone, 
 G. A. Petersson, H. Nakatsuji, X. Li, M. Caricato, A. V. Marenich, 
 J. Bloino, B. G. Janesko, R. Gomperts, B. Mennucci, H. P. Hratchian, 
 J. V. Ortiz, A. F. Izmaylov, J. L. Sonnenberg, D. Williams-Young, 
 F. Ding, F. Lipparini, F. Egidi, J. Goings, B. Peng, A. Petrone, 
 T. Henderson, D. Ranasinghe, V. G. Zakrzewski, J. Gao, N. Rega, 
 G. Zheng, W. Liang, M. Hada, M. Ehara, K. Toyota, R. Fukuda, 
 J. Hasegawa, M. Ishida, T. Nakajima, Y. Honda, O. Kitao, H. Nakai, 
 T. Vreven, K. Throssell, J. A. Montgomery, Jr., J. E. Peralta, 
 F. Ogliaro, M. J. Bearpark, J. J. Heyd, E. N. Brothers, K. N. Kudin, 
 V. N. Staroverov, T. A. Keith, R. Kobayashi, J. Normand, 
 K. Raghavachari, A. P. Rendell, J. C. Burant, S. S. Iyengar, 
 J. Tomasi, M. Cossi, J. M. Millam, M. Klene, C. Adamo, R. Cammi, 
 J. W. Ochterski, R. L. Martin, K. Morokuma, O. Farkas, 
 J. B. Foresman, and D. J. Fox, Gaussian, Inc., Wallingford CT, 2016.
 
 ******************************************
 Gaussian 16:  ES64L-G16RevA.03 25-Dec-2016
                 5-Jun-2019 
 ******************************************
 %nprocshared=2
 Will use up to    2 processors via shared memory.
 %mem=2GB
 ----------------
 # 6-31g(d) wb97x
 ----------------
 1/38=1,172=1/1;
 2/12=2,17=6,18=5,40=1/2;
 3/5=1,6=6,7=1,11=2,25=1,30=1,74=-57/1,2,3;
 4//1;
 5/5=2,38=5/2;
 6/7=2,8=2,9=2,10=2,28=1/1;
 99/5=1,9=1/99;
 ---------------------
 tmpdir/M2_ref_158.gjf
 ---------------------
 Symbolic Z-matrix:
 Charge =  0 Multiplicity = 1
 N                     4.01333  -1.78954   15.49762 
 C                     5.23708  -1.28224   15.46829 
 C                     5.55769  -0.09244   14.82461 
 H                     3.35612  -1.2883    15.04252 
 H                     6.00505  -1.85937   15.9821 
 H                     6.57686   0.27435   14.79763 
 O                     4.63178   0.49643   14.27316 
 
                          Input orientation:                          
 ---------------------------------------------------------------------
 Center     Atomic      Atomic             Coordinates (Angstroms)
 Number     Number       Type             X           Y           Z
 ---------------------------------------------------------------------
      1          7           0        4.013328   -1.789540   15.497620
      2          6           0        5.237079   -1.282241   15.468294
      3          6           0        5.557686   -0.092444   14.824609
      4          1           0        3.356122   -1.288303   15.042524
      5          1           0        6.005048   -1.859366   15.982097
      6          1           0        6.576856    0.274349   14.797633
      7          8           0        4.631778    0.496431   14.273162
 ---------------------------------------------------------------------
                    Distance matrix (angstroms):
                    1          2          3          4          5
     1  N    0.000000
     2  C    1.325058   0.000000
     3  C    2.391259   1.390229   0.000000
     4  H    0.943541   1.928553   2.514846   0.000000
     5  H    2.050986   1.089423   2.159149   2.868051   0.000000
     6  H    3.364713   2.160500   1.083500   3.588172   2.506523
     7  O    2.665979   2.226748   1.228077   2.324757   3.218091
                    6          7
     6  H    0.000000
     7  O    2.026750   0.000000
 Stoichiometry    C2H3NO
 Framework group  C1[X(C2H3NO)]
 Deg. of freedom    15
 Full point group                 C1      NOp   1
 Largest Abelian subgroup         C1      NOp   1
 Largest concise Abelian subgroup C1      NOp   1
                         Standard orientation:                         
 ---------------------------------------------------------------------
 Center     Atomic      Atomic             Coordinates (Angstroms)
 Number     Number       Type             X           Y           Z
 ---------------------------------------------------------------------
      1          7           0       -1.423860   -0.465991    0.001750
      2          6           0       -0.627167    0.592796   -0.003762
      3          6           0        0.760419    0.507170   -0.000670
      4          1           0       -0.986415   -1.301932    0.012479
      5          1           0       -1.123071    1.562806   -0.005439
      6          1           0        1.377791    1.397207    0.024947
      7          8           0        1.237400   -0.624492   -0.002205
 ---------------------------------------------------------------------
 Rotational constants (GHZ):          22.3327039           7.3520602           5.5312970
 Standard basis: 6-31G(d) (6D, 7F)
 There are    66 symmetry adapted cartesian basis functions of A   symmetry.
 There are    66 symmetry adapted basis functions of A   symmetry.
    66 basis functions,   124 primitive gaussians,    66 cartesian basis functions
    15 alpha electrons       15 beta electrons
       nuclear repulsion energy       107.2715117352 Hartrees.
 NAtoms=    7 NActive=    7 NUniq=    7 SFac= 1.00D+00 NAtFMM=   60 NAOKFM=F Big=F
 Integral buffers will be    131072 words long.
 Raffenetti 2 integral format.
 Two-electron integral symmetry is turned on.
 One-electron integrals computed using PRISM.
 NBasis=    66 RedAO= T EigKep=  2.54D-03  NBF=    66
 NBsUse=    66 1.00D-06 EigRej= -1.00D+00 NBFU=    66
 ExpMin= 1.61D-01 ExpMax= 5.48D+03 ExpMxC= 8.25D+02 IAcc=3 IRadAn=         5 AccDes= 0.00D+00
 Harris functional with IExCor= 4538 and IRadAn=       5 diagonalized for initial guess.
 HarFok:  IExCor= 4538 AccDes= 0.00D+00 IRadAn=         5 IDoV= 1 UseB2=F ITyADJ=14
 ICtDFT=  3500011 ScaDFX=  1.000000  1.000000  1.000000  1.000000
 FoFCou: FMM=F IPFlag=           0 FMFlag=      100000 FMFlg1=           0
         NFxFlg=           0 DoJE=T BraDBF=F KetDBF=T FulRan=T
         wScrn=  0.000000 ICntrl=       500 IOpCl=  0 I1Cent=   200000004 NGrid=           0
         NMat0=    1 NMatS0=      1 NMatT0=    0 NMatD0=    1 NMtDS0=    0 NMtDT0=    0
 Petite list used in FoFCou.
 Keep R1 ints in memory in canonical form, NReq=6667331.
 Requested convergence on RMS density matrix=1.00D-08 within 128 cycles.
 Requested convergence on MAX density matrix=1.00D-06.
 Requested convergence on             energy=1.00D-06.
 No special actions if energy rises.
 Integral accuracy reduced to 1.0D-05 until final iterations.
 Initial convergence to 1.0D-05 achieved.  Increase integral accuracy.
 SCF Done:  E(RwB97X) =  -207.866444203     A.U. after   14 cycles
            NFock= 14  Conv=0.88D-08     -V/T= 2.0079

 **********************************************************************

            Population analysis using the SCF density.

 **********************************************************************

 Orbital symmetries:
       Occupied  (A) (A) (A) (A) (A) (A) (A) (A) (A) (A) (A) (A)
                 (A) (A) (A)
       Virtual   (A) (A) (A) (A) (A) (A) (A) (A) (A) (A) (A) (A)
                 (A) (A) (A) (A) (A) (A) (A) (A) (A) (A) (A) (A)
                 (A) (A) (A) (A) (A) (A) (A) (A) (A) (A) (A) (A)
                 (A) (A) (A) (A) (A) (A) (A) (A) (A) (A) (A) (A)
                 (A) (A) (A)
 The electronic state is 1-A.
 Alpha  occ. eigenvalues --  -19.23998 -14.42739 -10.37551 -10.33397  -1.19307
 Alpha  occ. eigenvalues --   -1.03979  -0.85526  -0.71004  -0.65349  -0.59656
 Alpha  occ. eigenvalues --   -0.53823  -0.53287  -0.42235  -0.40078  -0.38192
 Alpha virt. eigenvalues --   -0.01879   0.15316   0.20775   0.24296   0.25183
 Alpha virt. eigenvalues --    0.32648   0.44210   0.47852   0.60493   0.62801
 Alpha virt. eigenvalues --    0.69152   0.70015   0.73847   0.77783   0.82514
 Alpha virt. eigenvalues --    0.85886   0.89562   0.94600   0.96276   1.06000
 Alpha virt. eigenvalues --    1.07700   1.08161   1.13112   1.22996   1.23946
 Alpha virt. eigenvalues --    1.38927   1.40759   1.51411   1.63448   1.64543
 Alpha virt. eigenvalues --    1.78624   1.84146   1.90002   1.93476   1.97725
 Alpha virt. eigenvalues --    2.11622   2.14176   2.33227   2.38819   2.42563
 Alpha virt. eigenvalues --    2.46735   2.59194   2.71676   2.72847   2.90169
 Alpha virt. eigenvalues --    3.00397   3.19767   3.82522   4.00588   4.19470
 Alpha virt. eigenvalues --    4.43741
          Condensed to atoms (all electrons):
               1          2          3          4          5          6
     1  N    6.658366   0.613416  -0.055598   0.307767  -0.038081   0.004368
     2  C    0.613416   4.996882   0.308775  -0.067396   0.360170  -0.085920
     3  C   -0.055598   0.308775   4.696421  -0.009195  -0.053813   0.358366
     4  H    0.307767  -0.067396  -0.009195   0.397512   0.006615   0.001034
     5  H   -0.038081   0.360170  -0.053813   0.006615   0.534467   0.006629
     6  H    0.004368  -0.085920   0.358366   0.001034   0.006629   0.600363
     7  O   -0.021864  -0.089140   0.543381   0.022649   0.003624  -0.046577
               7
     1  N   -0.021864
     2  C   -0.089140
     3  C    0.543381
     4  H    0.022649
     5  H    0.003624
     6  H   -0.046577
     7  O    7.977569
 Mulliken charges:
               1
     1  N   -0.468374
     2  C   -0.036787
     3  C    0.211663
     4  H    0.341014
     5  H    0.180388
     6  H    0.161738
     7  O   -0.389642
 Sum of Mulliken charges =  -0.00000
 Mulliken charges with hydrogens summed into heavy atoms:
               1
     1  N   -0.127360
     2  C    0.143601
     3  C    0.373401
     7  O   -0.389642
 Electronic spatial extent (au):  <R**2>=            234.1640
 Charge=             -0.0000 electrons
 Dipole moment (field-independent basis, Debye):
    X=              0.6354    Y=              2.0943    Z=              0.0210  Tot=              2.1887
 Quadrupole moment (field-independent basis, Debye-Ang):
   XX=            -28.9112   YY=            -19.5071   ZZ=            -22.6084
   XY=              2.0288   XZ=              0.0061   YZ=             -0.0197
 Traceless Quadrupole moment (field-independent basis, Debye-Ang):
   XX=             -5.2356   YY=              4.1684   ZZ=              1.0672
   XY=              2.0288   XZ=              0.0061   YZ=             -0.0197
 Octapole moment (field-independent basis, Debye-Ang**2):
  XXX=             11.8592  YYY=             -2.6812  ZZZ=              0.0115  XYY=             -1.5428
  XXY=              4.6802  XXZ=              0.0207  XZZ=              2.0142  YZZ=             -1.2836
  YYZ=              0.0668  XYZ=              0.0462
 Hexadecapole moment (field-independent basis, Debye-Ang**3):
 XXXX=           -214.8822 YYYY=            -72.9360 ZZZZ=            -19.4587 XXXY=             -1.8170
 XXXZ=              0.0238 YYYX=              1.7965 YYYZ=             -0.0231 ZZZX=             -0.0287
 ZZZY=             -0.0149 XXYY=            -40.7286 XXZZ=            -34.5169 YYZZ=            -16.8220
 XXYZ=              0.0152 YYXZ=              0.0173 ZZXY=             -0.2439
 N-N= 1.072715117352D+02 E-N=-7.002771404879D+02  KE= 2.062311442778D+02
 1\1\GINC-NODE91\SP\RwB97X\6-31G(d)\C2H3N1O1\YANZ\05-Jun-2019\0\\# 6-31
 g(d) wb97x\\tmpdir/M2_ref_158.gjf\\0,1\N,0,4.013328,-1.78954,15.49762\
 C,0,5.237079,-1.282241,15.468294\C,0,5.557686,-0.092444,14.824609\H,0,
 3.3561222,-1.2883027,15.04252446\H,0,6.005048,-1.859366,15.982097\H,0,
 6.576856,0.274349,14.797633\O,0,4.63177849,0.49643141,14.27316172\\Ver
 sion=ES64L-G16RevA.03\State=1-A\HF=-207.8664442\RMSD=8.831e-09\Dipole=
 0.8478535,0.0744611,0.1306455\Quadrupole=3.2520941,-2.9413906,-0.31070
 34,-0.3591812,0.7651438,2.1428077\PG=C01 [X(C2H3N1O1)]\\@


 WOMEN HOLD UP HALF THE SKY. -- MAO TSE TUNG
 Job cpu time:       0 days  0 hours  0 minutes 14.7 seconds.
 Elapsed time:       0 days  0 hours  0 minutes  7.5 seconds.
 File lengths (MBytes):  RWF=      6 Int=      0 D2E=      0 Chk=      1 Scr=      1
 Normal termination of Gaussian 16 at Wed Jun  5 16:58:31 2019.
