 Entering Gaussian System, Link 0=g16
 Initial command:
 /share/apps/gaussian/g16/l1.exe "/tmp/55477.mgr/Gau-318147.inp" -scrdir="/tmp/55477.mgr/"
 Entering Link 1 = /share/apps/gaussian/g16/l1.exe PID=    318148.
  
 Copyright (c) 1988,1990,1992,1993,1995,1998,2003,2009,2016,
            Gaussian, Inc.  All Rights Reserved.
  
 This is part of the Gaussian(R) 16 program.  It is based on
 the Gaussian(R) 09 system (copyright 2009, Gaussian, Inc.),
 the Gaussian(R) 03 system (copyright 2003, Gaussian, Inc.),
 the Gaussian(R) 98 system (copyright 1998, Gaussian, Inc.),
 the Gaussian(R) 94 system (copyright 1995, Gaussian, Inc.),
 the Gaussian 92(TM) system (copyright 1992, Gaussian, Inc.),
 the Gaussian 90(TM) system (copyright 1990, Gaussian, Inc.),
 the Gaussian 88(TM) system (copyright 1988, Gaussian, Inc.),
 the Gaussian 86(TM) system (copyright 1986, Carnegie Mellon
 University), and the Gaussian 82(TM) system (copyright 1983,
 Carnegie Mellon University). Gaussian is a federally registered
 trademark of Gaussian, Inc.
  
 This software contains proprietary and confidential information,
 including trade secrets, belonging to Gaussian, Inc.
  
 This software is provided under written license and may be
 used, copied, transmitted, or stored only in accord with that
 written license.
  
 The following legend is applicable only to US Government
 contracts under FAR:
  
                    RESTRICTED RIGHTS LEGEND
  
 Use, reproduction and disclosure by the US Government is
 subject to restrictions as set forth in subparagraphs (a)
 and (c) of the Commercial Computer Software - Restricted
 Rights clause in FAR 52.227-19.
  
 Gaussian, Inc.
 340 Quinnipiac St., Bldg. 40, Wallingford CT 06492
  
  
 ---------------------------------------------------------------
 Warning -- This program may not be used in any manner that
 competes with the business of Gaussian, Inc. or will provide
 assistance to any competitor of Gaussian, Inc.  The licensee
 of this program is prohibited from giving any competitor of
 Gaussian, Inc. access to this program.  By using this program,
 the user acknowledges that Gaussian, Inc. is engaged in the
 business of creating and licensing software in the field of
 computational chemistry and represents and warrants to the
 licensee that it is not a competitor of Gaussian, Inc. and that
 it will not use this program in any manner prohibited above.
 ---------------------------------------------------------------
  

 Cite this work as:
 Gaussian 16, Revision A.03,
 M. J. Frisch, G. W. Trucks, H. B. Schlegel, G. E. Scuseria, 
 M. A. Robb, J. R. Cheeseman, G. Scalmani, V. Barone, 
 G. A. Petersson, H. Nakatsuji, X. Li, M. Caricato, A. V. Marenich, 
 J. Bloino, B. G. Janesko, R. Gomperts, B. Mennucci, H. P. Hratchian, 
 J. V. Ortiz, A. F. Izmaylov, J. L. Sonnenberg, D. Williams-Young, 
 F. Ding, F. Lipparini, F. Egidi, J. Goings, B. Peng, A. Petrone, 
 T. Henderson, D. Ranasinghe, V. G. Zakrzewski, J. Gao, N. Rega, 
 G. Zheng, W. Liang, M. Hada, M. Ehara, K. Toyota, R. Fukuda, 
 J. Hasegawa, M. Ishida, T. Nakajima, Y. Honda, O. Kitao, H. Nakai, 
 T. Vreven, K. Throssell, J. A. Montgomery, Jr., J. E. Peralta, 
 F. Ogliaro, M. J. Bearpark, J. J. Heyd, E. N. Brothers, K. N. Kudin, 
 V. N. Staroverov, T. A. Keith, R. Kobayashi, J. Normand, 
 K. Raghavachari, A. P. Rendell, J. C. Burant, S. S. Iyengar, 
 J. Tomasi, M. Cossi, J. M. Millam, M. Klene, C. Adamo, R. Cammi, 
 J. W. Ochterski, R. L. Martin, K. Morokuma, O. Farkas, 
 J. B. Foresman, and D. J. Fox, Gaussian, Inc., Wallingford CT, 2016.
 
 ******************************************
 Gaussian 16:  ES64L-G16RevA.03 25-Dec-2016
                 5-Jun-2019 
 ******************************************
 %nprocshared=2
 Will use up to    2 processors via shared memory.
 %mem=2GB
 ----------------
 # 6-31g(d) wb97x
 ----------------
 1/38=1,172=1/1;
 2/12=2,17=6,18=5,40=1/2;
 3/5=1,6=6,7=1,11=2,25=1,30=1,74=-57/1,2,3;
 4//1;
 5/5=2,38=5/2;
 6/7=2,8=2,9=2,10=2,28=1/1;
 99/5=1,9=1/99;
 --------------------
 tmpdir/M2_ref_65.gjf
 --------------------
 Symbolic Z-matrix:
 Charge =  0 Multiplicity = 1
 C                    -1.87581   5.37814   9.38629 
 C                    -0.76388   4.67246   8.92584 
 H                    -2.24637   6.2555    8.84298 
 H                    -2.31182   5.08971   10.25086 
 H                    -0.28814   4.96982   7.99315 
 H                    -0.3972    3.89415   9.44586 
 
                          Input orientation:                          
 ---------------------------------------------------------------------
 Center     Atomic      Atomic             Coordinates (Angstroms)
 Number     Number       Type             X           Y           Z
 ---------------------------------------------------------------------
      1          6           0       -1.875808    5.378142    9.386288
      2          6           0       -0.763877    4.672461    8.925844
      3          1           0       -2.246369    6.255502    8.842984
      4          1           0       -2.311817    5.089706   10.250858
      5          1           0       -0.288137    4.969819    7.993150
      6          1           0       -0.397203    3.894147    9.445859
 ---------------------------------------------------------------------
                    Distance matrix (angstroms):
                    1          2          3          4          5
     1  C    0.000000
     2  C    1.395129   0.000000
     3  H    1.096474   2.170407   0.000000
     4  H    1.010336   2.079873   1.829063   0.000000
     5  H    2.151339   1.088425   2.491961   3.034287   0.000000
     6  H    2.095725   1.005305   3.059227   2.396483   1.810892
                    6
     6  H    0.000000
 Stoichiometry    C2H4
 Framework group  C1[X(C2H4)]
 Deg. of freedom    12
 Full point group                 C1      NOp   1
 Largest Abelian subgroup         C1      NOp   1
 Largest concise Abelian subgroup C1      NOp   1
                         Standard orientation:                         
 ---------------------------------------------------------------------
 Center     Atomic      Atomic             Coordinates (Angstroms)
 Number     Number       Type             X           Y           Z
 ---------------------------------------------------------------------
      1          6           0       -0.697789   -0.009936   -0.005524
      2          6           0        0.697325   -0.007588    0.000478
      3          1           0       -1.259325    0.931339    0.025032
      4          1           0       -1.183274   -0.895969   -0.000099
      5          1           0        1.232367    0.940187   -0.010526
      6          1           0        1.213020   -0.870409    0.015870
 ---------------------------------------------------------------------
 Rotational constants (GHZ):         151.2924889          28.5487023          24.0197329
 Standard basis: 6-31G(d) (6D, 7F)
 There are    38 symmetry adapted cartesian basis functions of A   symmetry.
 There are    38 symmetry adapted basis functions of A   symmetry.
    38 basis functions,    72 primitive gaussians,    38 cartesian basis functions
     8 alpha electrons        8 beta electrons
       nuclear repulsion energy        33.1110415194 Hartrees.
 NAtoms=    6 NActive=    6 NUniq=    6 SFac= 1.00D+00 NAtFMM=   60 NAOKFM=F Big=F
 Integral buffers will be    131072 words long.
 Raffenetti 2 integral format.
 Two-electron integral symmetry is turned on.
 One-electron integrals computed using PRISM.
 NBasis=    38 RedAO= T EigKep=  8.97D-03  NBF=    38
 NBsUse=    38 1.00D-06 EigRej= -1.00D+00 NBFU=    38
 ExpMin= 1.61D-01 ExpMax= 3.05D+03 ExpMxC= 4.57D+02 IAcc=3 IRadAn=         5 AccDes= 0.00D+00
 Harris functional with IExCor= 4538 and IRadAn=       5 diagonalized for initial guess.
 HarFok:  IExCor= 4538 AccDes= 0.00D+00 IRadAn=         5 IDoV= 1 UseB2=F ITyADJ=14
 ICtDFT=  3500011 ScaDFX=  1.000000  1.000000  1.000000  1.000000
 FoFCou: FMM=F IPFlag=           0 FMFlag=      100000 FMFlg1=           0
         NFxFlg=           0 DoJE=T BraDBF=F KetDBF=T FulRan=T
         wScrn=  0.000000 ICntrl=       500 IOpCl=  0 I1Cent=   200000004 NGrid=           0
         NMat0=    1 NMatS0=      1 NMatT0=    0 NMatD0=    1 NMtDS0=    0 NMtDT0=    0
 Petite list used in FoFCou.
 Keep R1 ints in memory in canonical form, NReq=2276060.
 Requested convergence on RMS density matrix=1.00D-08 within 128 cycles.
 Requested convergence on MAX density matrix=1.00D-06.
 Requested convergence on             energy=1.00D-06.
 No special actions if energy rises.
 Integral accuracy reduced to 1.0D-05 until final iterations.
 Initial convergence to 1.0D-05 achieved.  Increase integral accuracy.
 SCF Done:  E(RwB97X) =  -78.5425380188     A.U. after   12 cycles
            NFock= 12  Conv=0.33D-08     -V/T= 2.0093

 **********************************************************************

            Population analysis using the SCF density.

 **********************************************************************

 Orbital symmetries:
       Occupied  (A) (A) (A) (A) (A) (A) (A) (A)
       Virtual   (A) (A) (A) (A) (A) (A) (A) (A) (A) (A) (A) (A)
                 (A) (A) (A) (A) (A) (A) (A) (A) (A) (A) (A) (A)
                 (A) (A) (A) (A) (A) (A)
 The electronic state is 1-A.
 Alpha  occ. eigenvalues --  -10.26777 -10.26623  -0.87690  -0.70983  -0.58434
 Alpha  occ. eigenvalues --   -0.50853  -0.47353  -0.35599
 Alpha virt. eigenvalues --    0.09902   0.22160   0.26281   0.26953   0.35005
 Alpha virt. eigenvalues --    0.40745   0.59777   0.66255   0.66645   0.74591
 Alpha virt. eigenvalues --    0.75646   0.77549   0.99655   1.00150   1.08351
 Alpha virt. eigenvalues --    1.09767   1.19118   1.34693   1.55383   1.66058
 Alpha virt. eigenvalues --    1.90528   2.02668   2.11722   2.19029   2.42016
 Alpha virt. eigenvalues --    2.43057   2.75796   2.78086   4.21453   4.40048
          Condensed to atoms (all electrons):
               1          2          3          4          5          6
     1  C    4.973252   0.649140   0.384746   0.395050  -0.033522  -0.035151
     2  C    0.649140   4.971880  -0.032239  -0.037234   0.385739   0.395548
     3  H    0.384746  -0.032239   0.519327  -0.033324  -0.005315   0.003595
     4  H    0.395050  -0.037234  -0.033324   0.507403   0.003857  -0.005759
     5  H   -0.033522   0.385739  -0.005315   0.003857   0.522236  -0.034492
     6  H   -0.035151   0.395548   0.003595  -0.005759  -0.034492   0.504624
 Mulliken charges:
               1
     1  C   -0.333514
     2  C   -0.332833
     3  H    0.163209
     4  H    0.170007
     5  H    0.161497
     6  H    0.171635
 Sum of Mulliken charges =  -0.00000
 Mulliken charges with hydrogens summed into heavy atoms:
               1
     1  C   -0.000298
     2  C    0.000298
 Electronic spatial extent (au):  <R**2>=             82.9625
 Charge=             -0.0000 electrons
 Dipole moment (field-independent basis, Debye):
    X=              0.0050    Y=             -0.0475    Z=              0.0292  Tot=              0.0559
 Quadrupole moment (field-independent basis, Debye-Ang):
   XX=            -11.8977   YY=            -11.8891   ZZ=            -15.1327
   XY=             -0.0544   XZ=             -0.0250   YZ=             -0.0006
 Traceless Quadrupole moment (field-independent basis, Debye-Ang):
   XX=              1.0754   YY=              1.0841   ZZ=             -2.1595
   XY=             -0.0544   XZ=             -0.0250   YZ=             -0.0006
 Octapole moment (field-independent basis, Debye-Ang**2):
  XXX=              0.0812  YYY=             -0.1887  ZZZ=              0.0441  XYY=             -0.0229
  XXY=              0.0046  XXZ=              0.0677  XZZ=              0.0213  YZZ=             -0.1491
  YYZ=              0.0404  XYZ=             -0.0682
 Hexadecapole moment (field-independent basis, Debye-Ang**3):
 XXXX=            -67.8570 YYYY=            -24.5215 ZZZZ=            -15.8936 XXXY=             -0.2742
 XXXZ=             -0.0651 YYYX=             -0.0192 YYYZ=             -0.0014 ZZZX=             -0.0185
 ZZZY=             -0.0035 XXYY=            -12.9312 XXZZ=            -14.8073 YYZZ=             -7.3312
 XXYZ=              0.0028 YYXZ=             -0.0396 ZZXY=             -0.0114
 N-N= 3.311104151935D+01 E-N=-2.475565746003D+02  KE= 7.781525342656D+01
 1\1\GINC-NODE91\SP\RwB97X\6-31G(d)\C2H4\YANZ\05-Jun-2019\0\\# 6-31g(d)
  wb97x\\tmpdir/M2_ref_65.gjf\\0,1\C,0,-1.875808,5.378142,9.386288\C,0,
 -0.763877,4.672461,8.925844\H,0,-2.24636886,6.25550197,8.84298405\H,0,
 -2.31181684,5.089706,10.25085762\H,0,-0.288137,4.969819,7.99315\H,0,-0
 .39720268,3.89414746,9.44585909\\Version=ES64L-G16RevA.03\State=1-A\HF
 =-78.542538\RMSD=3.339e-09\Dipole=0.007382,-0.0053794,0.0200251\Quadru
 pole=-0.1009646,-0.0523971,0.1533617,-0.9061602,-0.72519,-0.7550065\PG
 =C01 [X(C2H4)]\\@


 SI MONUMENTUM REQUIRIS, CIRCUMSPICE
     -- FROM SIR CHRISTOPHER WREN'S TOMBSTONE
 Job cpu time:       0 days  0 hours  0 minutes  8.0 seconds.
 Elapsed time:       0 days  0 hours  0 minutes  4.1 seconds.
 File lengths (MBytes):  RWF=      6 Int=      0 D2E=      0 Chk=      1 Scr=      1
 Normal termination of Gaussian 16 at Wed Jun  5 16:57:28 2019.
