 Entering Gaussian System, Link 0=g16
 Initial command:
 /share/apps/gaussian/g16/l1.exe "/tmp/55477.mgr/Gau-319756.inp" -scrdir="/tmp/55477.mgr/"
 Entering Link 1 = /share/apps/gaussian/g16/l1.exe PID=    319757.
  
 Copyright (c) 1988,1990,1992,1993,1995,1998,2003,2009,2016,
            Gaussian, Inc.  All Rights Reserved.
  
 This is part of the Gaussian(R) 16 program.  It is based on
 the Gaussian(R) 09 system (copyright 2009, Gaussian, Inc.),
 the Gaussian(R) 03 system (copyright 2003, Gaussian, Inc.),
 the Gaussian(R) 98 system (copyright 1998, Gaussian, Inc.),
 the Gaussian(R) 94 system (copyright 1995, Gaussian, Inc.),
 the Gaussian 92(TM) system (copyright 1992, Gaussian, Inc.),
 the Gaussian 90(TM) system (copyright 1990, Gaussian, Inc.),
 the Gaussian 88(TM) system (copyright 1988, Gaussian, Inc.),
 the Gaussian 86(TM) system (copyright 1986, Carnegie Mellon
 University), and the Gaussian 82(TM) system (copyright 1983,
 Carnegie Mellon University). Gaussian is a federally registered
 trademark of Gaussian, Inc.
  
 This software contains proprietary and confidential information,
 including trade secrets, belonging to Gaussian, Inc.
  
 This software is provided under written license and may be
 used, copied, transmitted, or stored only in accord with that
 written license.
  
 The following legend is applicable only to US Government
 contracts under FAR:
  
                    RESTRICTED RIGHTS LEGEND
  
 Use, reproduction and disclosure by the US Government is
 subject to restrictions as set forth in subparagraphs (a)
 and (c) of the Commercial Computer Software - Restricted
 Rights clause in FAR 52.227-19.
  
 Gaussian, Inc.
 340 Quinnipiac St., Bldg. 40, Wallingford CT 06492
  
  
 ---------------------------------------------------------------
 Warning -- This program may not be used in any manner that
 competes with the business of Gaussian, Inc. or will provide
 assistance to any competitor of Gaussian, Inc.  The licensee
 of this program is prohibited from giving any competitor of
 Gaussian, Inc. access to this program.  By using this program,
 the user acknowledges that Gaussian, Inc. is engaged in the
 business of creating and licensing software in the field of
 computational chemistry and represents and warrants to the
 licensee that it is not a competitor of Gaussian, Inc. and that
 it will not use this program in any manner prohibited above.
 ---------------------------------------------------------------
  

 Cite this work as:
 Gaussian 16, Revision A.03,
 M. J. Frisch, G. W. Trucks, H. B. Schlegel, G. E. Scuseria, 
 M. A. Robb, J. R. Cheeseman, G. Scalmani, V. Barone, 
 G. A. Petersson, H. Nakatsuji, X. Li, M. Caricato, A. V. Marenich, 
 J. Bloino, B. G. Janesko, R. Gomperts, B. Mennucci, H. P. Hratchian, 
 J. V. Ortiz, A. F. Izmaylov, J. L. Sonnenberg, D. Williams-Young, 
 F. Ding, F. Lipparini, F. Egidi, J. Goings, B. Peng, A. Petrone, 
 T. Henderson, D. Ranasinghe, V. G. Zakrzewski, J. Gao, N. Rega, 
 G. Zheng, W. Liang, M. Hada, M. Ehara, K. Toyota, R. Fukuda, 
 J. Hasegawa, M. Ishida, T. Nakajima, Y. Honda, O. Kitao, H. Nakai, 
 T. Vreven, K. Throssell, J. A. Montgomery, Jr., J. E. Peralta, 
 F. Ogliaro, M. J. Bearpark, J. J. Heyd, E. N. Brothers, K. N. Kudin, 
 V. N. Staroverov, T. A. Keith, R. Kobayashi, J. Normand, 
 K. Raghavachari, A. P. Rendell, J. C. Burant, S. S. Iyengar, 
 J. Tomasi, M. Cossi, J. M. Millam, M. Klene, C. Adamo, R. Cammi, 
 J. W. Ochterski, R. L. Martin, K. Morokuma, O. Farkas, 
 J. B. Foresman, and D. J. Fox, Gaussian, Inc., Wallingford CT, 2016.
 
 ******************************************
 Gaussian 16:  ES64L-G16RevA.03 25-Dec-2016
                 5-Jun-2019 
 ******************************************
 %nprocshared=2
 Will use up to    2 processors via shared memory.
 %mem=2GB
 ----------------
 # 6-31g(d) wb97x
 ----------------
 1/38=1,172=1/1;
 2/12=2,17=6,18=5,40=1/2;
 3/5=1,6=6,7=1,11=2,25=1,30=1,74=-57/1,2,3;
 4//1;
 5/5=2,38=5/2;
 6/7=2,8=2,9=2,10=2,28=1/1;
 99/5=1,9=1/99;
 ---------------------
 tmpdir/M2_ref_167.gjf
 ---------------------
 Symbolic Z-matrix:
 Charge =  0 Multiplicity = 1
 N                     3.26303   0.07821   14.20876 
 C                     4.50745   0.57551   14.19911 
 C                     4.69498   1.86037   13.47925 
 O                     3.09892  -0.92561   14.76553 
 O                     5.43335  -0.01337   14.75056 
 O                     3.89579   2.21016   12.61206 
 H                     5.46383   2.48308   13.6881 
 
                          Input orientation:                          
 ---------------------------------------------------------------------
 Center     Atomic      Atomic             Coordinates (Angstroms)
 Number     Number       Type             X           Y           Z
 ---------------------------------------------------------------------
      1          7           0        3.263032    0.078208   14.208759
      2          6           0        4.507447    0.575506   14.199113
      3          6           0        4.694978    1.860366   13.479253
      4          8           0        3.098923   -0.925612   14.765532
      5          8           0        5.433355   -0.013369   14.750560
      6          8           0        3.895789    2.210159   12.612057
      7          1           0        5.463827    2.483083   13.688104
 ---------------------------------------------------------------------
                    Distance matrix (angstroms):
                    1          2          3          4          5
     1  N    0.000000
     2  C    1.340137   0.000000
     3  C    2.399737   1.484665   0.000000
     4  O    1.159561   2.134977   3.458841   0.000000
     5  O    2.238802   1.228077   2.381660   2.506388   0.000000
     6  O    2.737709   2.359017   1.230076   3.886580   3.446938
     7  H    3.301212   2.194229   1.011199   4.286353   2.713304
                    6          7
     6  O    0.000000
     7  H    1.921226   0.000000
 Stoichiometry    C2HNO3
 Framework group  C1[X(C2HNO3)]
 Deg. of freedom    15
 Full point group                 C1      NOp   1
 Largest Abelian subgroup         C1      NOp   1
 Largest concise Abelian subgroup C1      NOp   1
                         Standard orientation:                         
 ---------------------------------------------------------------------
 Center     Atomic      Atomic             Coordinates (Angstroms)
 Number     Number       Type             X           Y           Z
 ---------------------------------------------------------------------
      1          7           0        0.743245   -0.768133    0.079757
      2          6           0        0.078922    0.394693    0.029975
      3          6           0       -1.399477    0.310829    0.137373
      4          8           0        1.898818   -0.721080   -0.004027
      5          8           0        0.671320    1.461743   -0.106560
      6          8           0       -1.985316   -0.734268   -0.141291
      7          1           0       -1.957953    1.092644    0.452640
 ---------------------------------------------------------------------
 Rotational constants (GHZ):           7.8258604           3.0791725           2.2296702
 Standard basis: 6-31G(d) (6D, 7F)
 There are    92 symmetry adapted cartesian basis functions of A   symmetry.
 There are    92 symmetry adapted basis functions of A   symmetry.
    92 basis functions,   172 primitive gaussians,    92 cartesian basis functions
    22 alpha electrons       22 beta electrons
       nuclear repulsion energy       212.8126766607 Hartrees.
 NAtoms=    7 NActive=    7 NUniq=    7 SFac= 1.00D+00 NAtFMM=   60 NAOKFM=F Big=F
 Integral buffers will be    131072 words long.
 Raffenetti 2 integral format.
 Two-electron integral symmetry is turned on.
 One-electron integrals computed using PRISM.
 NBasis=    92 RedAO= T EigKep=  2.27D-03  NBF=    92
 NBsUse=    92 1.00D-06 EigRej= -1.00D+00 NBFU=    92
 ExpMin= 1.61D-01 ExpMax= 5.48D+03 ExpMxC= 8.25D+02 IAcc=3 IRadAn=         5 AccDes= 0.00D+00
 Harris functional with IExCor= 4538 and IRadAn=       5 diagonalized for initial guess.
 HarFok:  IExCor= 4538 AccDes= 0.00D+00 IRadAn=         5 IDoV= 1 UseB2=F ITyADJ=14
 ICtDFT=  3500011 ScaDFX=  1.000000  1.000000  1.000000  1.000000
 FoFCou: FMM=F IPFlag=           0 FMFlag=      100000 FMFlg1=           0
         NFxFlg=           0 DoJE=T BraDBF=F KetDBF=T FulRan=T
         wScrn=  0.000000 ICntrl=       500 IOpCl=  0 I1Cent=   200000004 NGrid=           0
         NMat0=    1 NMatS0=      1 NMatT0=    0 NMatD0=    1 NMtDS0=    0 NMtDT0=    0
 Petite list used in FoFCou.
 Keep R1 ints in memory in canonical form, NReq=20139963.
 Requested convergence on RMS density matrix=1.00D-08 within 128 cycles.
 Requested convergence on MAX density matrix=1.00D-06.
 Requested convergence on             energy=1.00D-06.
 No special actions if energy rises.
 Integral accuracy reduced to 1.0D-05 until final iterations.
 Rare condition: small coef for last iteration:  0.000D+00
 Rare condition: small coef for last iteration:  0.000D+00
 Problem detected with inexpensive integrals.
 Switching to full accuracy and repeating last cycle.
 Rare condition: small coef for last iteration:  0.000D+00
 EnCoef did   100 forward-backward iterations
 Rare condition: small coef for last iteration:  0.000D+00
 Rare condition: small coef for last iteration:  0.000D+00
 SCF Done:  E(RwB97X) =  -356.908939699     A.U. after   30 cycles
            NFock= 30  Conv=0.87D-08     -V/T= 2.0073

 **********************************************************************

            Population analysis using the SCF density.

 **********************************************************************

 Orbital symmetries:
       Occupied  (A) (A) (A) (A) (A) (A) (A) (A) (A) (A) (A) (A)
                 (A) (A) (A) (A) (A) (A) (A) (A) (A) (A)
       Virtual   (A) (A) (A) (A) (A) (A) (A) (A) (A) (A) (A) (A)
                 (A) (A) (A) (A) (A) (A) (A) (A) (A) (A) (A) (A)
                 (A) (A) (A) (A) (A) (A) (A) (A) (A) (A) (A) (A)
                 (A) (A) (A) (A) (A) (A) (A) (A) (A) (A) (A) (A)
                 (A) (A) (A) (A) (A) (A) (A) (A) (A) (A) (A) (A)
                 (A) (A) (A) (A) (A) (A) (A) (A) (A) (A)
 The electronic state is 1-A.
 Alpha  occ. eigenvalues --  -19.37078 -19.26698 -19.23515 -14.58644 -10.42745
 Alpha  occ. eigenvalues --  -10.40098  -1.40406  -1.21607  -1.19293  -0.98404
 Alpha  occ. eigenvalues --   -0.83269  -0.73387  -0.69517  -0.66937  -0.63082
 Alpha  occ. eigenvalues --   -0.59846  -0.56441  -0.55021  -0.49473  -0.43757
 Alpha  occ. eigenvalues --   -0.39255  -0.33533
 Alpha virt. eigenvalues --   -0.12404  -0.00638   0.14158   0.23200   0.29059
 Alpha virt. eigenvalues --    0.33884   0.38838   0.46290   0.47632   0.59000
 Alpha virt. eigenvalues --    0.63003   0.67239   0.69797   0.71018   0.74901
 Alpha virt. eigenvalues --    0.76044   0.78894   0.79975   0.85940   0.91389
 Alpha virt. eigenvalues --    0.94195   0.97511   1.00185   1.03211   1.06060
 Alpha virt. eigenvalues --    1.07537   1.11056   1.13361   1.17641   1.19839
 Alpha virt. eigenvalues --    1.28947   1.36130   1.44580   1.54011   1.56808
 Alpha virt. eigenvalues --    1.60203   1.61863   1.69323   1.74349   1.80491
 Alpha virt. eigenvalues --    1.82106   1.85501   1.89718   1.94383   1.96135
 Alpha virt. eigenvalues --    1.99651   2.07050   2.08619   2.14958   2.19894
 Alpha virt. eigenvalues --    2.31486   2.41970   2.45998   2.51348   2.54846
 Alpha virt. eigenvalues --    2.66409   2.69783   2.79294   2.83103   2.93764
 Alpha virt. eigenvalues --    2.97847   3.04038   3.14684   3.28528   3.70264
 Alpha virt. eigenvalues --    3.85541   4.01140   4.09382   4.31072   4.53788
          Condensed to atoms (all electrons):
               1          2          3          4          5          6
     1  N    6.782209   0.142606  -0.095105   0.204738  -0.086653   0.023159
     2  C    0.142606   4.825580   0.260140  -0.066157   0.548119  -0.087586
     3  C   -0.095105   0.260140   4.752722   0.004036  -0.046605   0.530317
     4  O    0.204738  -0.066157   0.004036   7.975263  -0.026879   0.000338
     5  O   -0.086653   0.548119  -0.046605  -0.026879   8.056431   0.001813
     6  O    0.023159  -0.087586   0.530317   0.000338   0.001813   7.934527
     7  H    0.004846  -0.087739   0.392975   0.000064   0.003202  -0.046787
               7
     1  N    0.004846
     2  C   -0.087739
     3  C    0.392975
     4  O    0.000064
     5  O    0.003202
     6  O   -0.046787
     7  H    0.527579
 Mulliken charges:
               1
     1  N    0.024200
     2  C    0.465036
     3  C    0.201520
     4  O   -0.091404
     5  O   -0.449429
     6  O   -0.355782
     7  H    0.205859
 Sum of Mulliken charges =  -0.00000
 Mulliken charges with hydrogens summed into heavy atoms:
               1
     1  N    0.024200
     2  C    0.465036
     3  C    0.407379
     4  O   -0.091404
     5  O   -0.449429
     6  O   -0.355782
 Electronic spatial extent (au):  <R**2>=            490.0427
 Charge=             -0.0000 electrons
 Dipole moment (field-independent basis, Debye):
    X=             -0.6195    Y=             -0.2757    Z=              0.8739  Tot=              1.1062
 Quadrupole moment (field-independent basis, Debye-Ang):
   XX=            -34.2154   YY=            -34.3672   ZZ=            -30.9977
   XY=             -6.1159   XZ=             -0.9912   YZ=              0.1448
 Traceless Quadrupole moment (field-independent basis, Debye-Ang):
   XX=             -1.0220   YY=             -1.1738   ZZ=              2.1958
   XY=             -6.1159   XZ=             -0.9912   YZ=              0.1448
 Octapole moment (field-independent basis, Debye-Ang**2):
  XXX=              7.0274  YYY=             -8.2284  ZZZ=             -0.5357  XYY=             -0.3686
  XXY=              7.3020  XXZ=              2.0375  XZZ=              0.0024  YZZ=             -0.0736
  YYZ=              1.2015  XYZ=             -0.1214
 Hexadecapole moment (field-independent basis, Debye-Ang**3):
 XXXX=           -381.9271 YYYY=           -161.9916 ZZZZ=            -26.9900 XXXY=            -15.6464
 XXXZ=             -4.0458 YYYX=             -9.5599 YYYZ=              0.2491 ZZZX=              0.3165
 ZZZY=              0.1338 XXYY=            -87.0889 XXZZ=            -64.1016 YYZZ=            -30.7545
 XXYZ=              0.3741 YYXZ=             -0.4462 ZZXY=              0.0449
 N-N= 2.128126766607D+02 E-N=-1.262846374853D+03  KE= 3.543395745421D+02
 1\1\GINC-NODE91\SP\RwB97X\6-31G(d)\C2H1N1O3\YANZ\05-Jun-2019\0\\# 6-31
 g(d) wb97x\\tmpdir/M2_ref_167.gjf\\0,1\N,0,3.263032,0.078208,14.208759
 \C,0,4.507447,0.575506,14.199113\C,0,4.694978,1.860366,13.479253\O,0,3
 .09892289,-0.92561171,14.76553224\O,0,5.43335451,-0.01336941,14.750560
 28\O,0,3.89578869,2.21015861,12.61205671\H,0,5.46382673,2.48308314,13.
 68810425\\Version=ES64L-G16RevA.03\State=1-A\HF=-356.9089397\RMSD=8.70
 5e-09\Dipole=-0.1428269,0.3969644,0.1068403\Quadrupole=0.8833346,0.520
 3698,-1.4037044,3.1739949,-2.1980987,2.6106327\PG=C01 [X(C2H1N1O3)]\\@


 EVERY WORD THAT YOU WRITE IS A BLOW THAT SMITES THE DEVIL.
     -- ST. BERNARD OF CLAIRVAUX
 Job cpu time:       0 days  0 hours  0 minutes 42.8 seconds.
 Elapsed time:       0 days  0 hours  0 minutes 21.7 seconds.
 File lengths (MBytes):  RWF=     10 Int=      0 D2E=      0 Chk=      2 Scr=      1
 Normal termination of Gaussian 16 at Wed Jun  5 16:58:56 2019.
