 Entering Gaussian System, Link 0=g16
 Initial command:
 /share/apps/gaussian/g16/l1.exe "/tmp/55477.mgr/Gau-319776.inp" -scrdir="/tmp/55477.mgr/"
 Entering Link 1 = /share/apps/gaussian/g16/l1.exe PID=    319777.
  
 Copyright (c) 1988,1990,1992,1993,1995,1998,2003,2009,2016,
            Gaussian, Inc.  All Rights Reserved.
  
 This is part of the Gaussian(R) 16 program.  It is based on
 the Gaussian(R) 09 system (copyright 2009, Gaussian, Inc.),
 the Gaussian(R) 03 system (copyright 2003, Gaussian, Inc.),
 the Gaussian(R) 98 system (copyright 1998, Gaussian, Inc.),
 the Gaussian(R) 94 system (copyright 1995, Gaussian, Inc.),
 the Gaussian 92(TM) system (copyright 1992, Gaussian, Inc.),
 the Gaussian 90(TM) system (copyright 1990, Gaussian, Inc.),
 the Gaussian 88(TM) system (copyright 1988, Gaussian, Inc.),
 the Gaussian 86(TM) system (copyright 1986, Carnegie Mellon
 University), and the Gaussian 82(TM) system (copyright 1983,
 Carnegie Mellon University). Gaussian is a federally registered
 trademark of Gaussian, Inc.
  
 This software contains proprietary and confidential information,
 including trade secrets, belonging to Gaussian, Inc.
  
 This software is provided under written license and may be
 used, copied, transmitted, or stored only in accord with that
 written license.
  
 The following legend is applicable only to US Government
 contracts under FAR:
  
                    RESTRICTED RIGHTS LEGEND
  
 Use, reproduction and disclosure by the US Government is
 subject to restrictions as set forth in subparagraphs (a)
 and (c) of the Commercial Computer Software - Restricted
 Rights clause in FAR 52.227-19.
  
 Gaussian, Inc.
 340 Quinnipiac St., Bldg. 40, Wallingford CT 06492
  
  
 ---------------------------------------------------------------
 Warning -- This program may not be used in any manner that
 competes with the business of Gaussian, Inc. or will provide
 assistance to any competitor of Gaussian, Inc.  The licensee
 of this program is prohibited from giving any competitor of
 Gaussian, Inc. access to this program.  By using this program,
 the user acknowledges that Gaussian, Inc. is engaged in the
 business of creating and licensing software in the field of
 computational chemistry and represents and warrants to the
 licensee that it is not a competitor of Gaussian, Inc. and that
 it will not use this program in any manner prohibited above.
 ---------------------------------------------------------------
  

 Cite this work as:
 Gaussian 16, Revision A.03,
 M. J. Frisch, G. W. Trucks, H. B. Schlegel, G. E. Scuseria, 
 M. A. Robb, J. R. Cheeseman, G. Scalmani, V. Barone, 
 G. A. Petersson, H. Nakatsuji, X. Li, M. Caricato, A. V. Marenich, 
 J. Bloino, B. G. Janesko, R. Gomperts, B. Mennucci, H. P. Hratchian, 
 J. V. Ortiz, A. F. Izmaylov, J. L. Sonnenberg, D. Williams-Young, 
 F. Ding, F. Lipparini, F. Egidi, J. Goings, B. Peng, A. Petrone, 
 T. Henderson, D. Ranasinghe, V. G. Zakrzewski, J. Gao, N. Rega, 
 G. Zheng, W. Liang, M. Hada, M. Ehara, K. Toyota, R. Fukuda, 
 J. Hasegawa, M. Ishida, T. Nakajima, Y. Honda, O. Kitao, H. Nakai, 
 T. Vreven, K. Throssell, J. A. Montgomery, Jr., J. E. Peralta, 
 F. Ogliaro, M. J. Bearpark, J. J. Heyd, E. N. Brothers, K. N. Kudin, 
 V. N. Staroverov, T. A. Keith, R. Kobayashi, J. Normand, 
 K. Raghavachari, A. P. Rendell, J. C. Burant, S. S. Iyengar, 
 J. Tomasi, M. Cossi, J. M. Millam, M. Klene, C. Adamo, R. Cammi, 
 J. W. Ochterski, R. L. Martin, K. Morokuma, O. Farkas, 
 J. B. Foresman, and D. J. Fox, Gaussian, Inc., Wallingford CT, 2016.
 
 ******************************************
 Gaussian 16:  ES64L-G16RevA.03 25-Dec-2016
                 5-Jun-2019 
 ******************************************
 %nprocshared=2
 Will use up to    2 processors via shared memory.
 %mem=2GB
 ----------------
 # 6-31g(d) wb97x
 ----------------
 1/38=1,172=1/1;
 2/12=2,17=6,18=5,40=1/2;
 3/5=1,6=6,7=1,11=2,25=1,30=1,74=-57/1,2,3;
 4//1;
 5/5=2,38=5/2;
 6/7=2,8=2,9=2,10=2,28=1/1;
 99/5=1,9=1/99;
 ---------------------
 tmpdir/M2_ref_164.gjf
 ---------------------
 Symbolic Z-matrix:
 Charge =  0 Multiplicity = 1
 H                     6.57686   0.27435   14.79763 
 C                     5.55769  -0.09244   14.82461 
 C                     4.50745   0.57551   14.19911 
 H                     5.3256   -0.95372   15.29056 
 H                     3.52932   0.18462   14.20669 
 H                     4.6432    1.5056    13.67802 
 
                          Input orientation:                          
 ---------------------------------------------------------------------
 Center     Atomic      Atomic             Coordinates (Angstroms)
 Number     Number       Type             X           Y           Z
 ---------------------------------------------------------------------
      1          1           0        6.576856    0.274349   14.797633
      2          6           0        5.557686   -0.092444   14.824609
      3          6           0        4.507447    0.575506   14.199113
      4          1           0        5.325603   -0.953721   15.290564
      5          1           0        3.529323    0.184624   14.206695
      6          1           0        4.643198    1.505598   13.678016
 ---------------------------------------------------------------------
                    Distance matrix (angstroms):
                    1          2          3          4          5
     1  H    0.000000
     2  C    1.083500   0.000000
     3  C    2.175172   1.392984   0.000000
     4  H    1.821201   1.006367   2.049190   0.000000
     5  H    3.105594   2.138420   1.053362   2.386886   0.000000
     6  H    2.551186   2.169032   1.074729   3.018980   1.806984
                    6
     6  H    0.000000
 Stoichiometry    C2H4
 Framework group  C1[X(C2H4)]
 Deg. of freedom    12
 Full point group                 C1      NOp   1
 Largest Abelian subgroup         C1      NOp   1
 Largest concise Abelian subgroup C1      NOp   1
                         Standard orientation:                         
 ---------------------------------------------------------------------
 Center     Atomic      Atomic             Coordinates (Angstroms)
 Number     Number       Type             X           Y           Z
 ---------------------------------------------------------------------
      1          1           0       -1.293593    0.898373    0.017563
      2          6           0       -0.702463   -0.009435   -0.002965
      3          6           0        0.690423    0.006904   -0.000836
      4          1           0       -1.139100   -0.916146   -0.003020
      5          1           0        1.247543   -0.886938    0.014545
      6          1           0        1.257391    0.919899   -0.006281
 ---------------------------------------------------------------------
 Rotational constants (GHZ):         152.8251311          28.3943245          23.9468742
 Standard basis: 6-31G(d) (6D, 7F)
 There are    38 symmetry adapted cartesian basis functions of A   symmetry.
 There are    38 symmetry adapted basis functions of A   symmetry.
    38 basis functions,    72 primitive gaussians,    38 cartesian basis functions
     8 alpha electrons        8 beta electrons
       nuclear repulsion energy        33.0457259570 Hartrees.
 NAtoms=    6 NActive=    6 NUniq=    6 SFac= 1.00D+00 NAtFMM=   60 NAOKFM=F Big=F
 Integral buffers will be    131072 words long.
 Raffenetti 2 integral format.
 Two-electron integral symmetry is turned on.
 One-electron integrals computed using PRISM.
 NBasis=    38 RedAO= T EigKep=  8.90D-03  NBF=    38
 NBsUse=    38 1.00D-06 EigRej= -1.00D+00 NBFU=    38
 ExpMin= 1.61D-01 ExpMax= 3.05D+03 ExpMxC= 4.57D+02 IAcc=3 IRadAn=         5 AccDes= 0.00D+00
 Harris functional with IExCor= 4538 and IRadAn=       5 diagonalized for initial guess.
 HarFok:  IExCor= 4538 AccDes= 0.00D+00 IRadAn=         5 IDoV= 1 UseB2=F ITyADJ=14
 ICtDFT=  3500011 ScaDFX=  1.000000  1.000000  1.000000  1.000000
 FoFCou: FMM=F IPFlag=           0 FMFlag=      100000 FMFlg1=           0
         NFxFlg=           0 DoJE=T BraDBF=F KetDBF=T FulRan=T
         wScrn=  0.000000 ICntrl=       500 IOpCl=  0 I1Cent=   200000004 NGrid=           0
         NMat0=    1 NMatS0=      1 NMatT0=    0 NMatD0=    1 NMtDS0=    0 NMtDT0=    0
 Petite list used in FoFCou.
 Keep R1 ints in memory in canonical form, NReq=2276060.
 Requested convergence on RMS density matrix=1.00D-08 within 128 cycles.
 Requested convergence on MAX density matrix=1.00D-06.
 Requested convergence on             energy=1.00D-06.
 No special actions if energy rises.
 Integral accuracy reduced to 1.0D-05 until final iterations.
 Initial convergence to 1.0D-05 achieved.  Increase integral accuracy.
 SCF Done:  E(RwB97X) =  -78.5462254475     A.U. after   13 cycles
            NFock= 13  Conv=0.41D-08     -V/T= 2.0098

 **********************************************************************

            Population analysis using the SCF density.

 **********************************************************************

 Orbital symmetries:
       Occupied  (A) (A) (A) (A) (A) (A) (A) (A)
       Virtual   (A) (A) (A) (A) (A) (A) (A) (A) (A) (A) (A) (A)
                 (A) (A) (A) (A) (A) (A) (A) (A) (A) (A) (A) (A)
                 (A) (A) (A) (A) (A) (A)
 The electronic state is 1-A.
 Alpha  occ. eigenvalues --  -10.26985 -10.26649  -0.87642  -0.70900  -0.58116
 Alpha  occ. eigenvalues --   -0.51165  -0.47094  -0.35650
 Alpha virt. eigenvalues --    0.09933   0.22561   0.25412   0.27012   0.34980
 Alpha virt. eigenvalues --    0.40921   0.59916   0.66037   0.66597   0.74564
 Alpha virt. eigenvalues --    0.75748   0.77599   0.99843   1.00654   1.07020
 Alpha virt. eigenvalues --    1.08991   1.19149   1.32757   1.55349   1.66016
 Alpha virt. eigenvalues --    1.90770   2.03284   2.10685   2.17669   2.42255
 Alpha virt. eigenvalues --    2.43111   2.75341   2.78809   4.21313   4.39769
          Condensed to atoms (all electrons):
               1          2          3          4          5          6
     1  H    0.511878   0.386161  -0.031443  -0.033134   0.003328  -0.004611
     2  C    0.386161   4.964123   0.649736   0.395810  -0.033715  -0.032324
     3  C   -0.031443   0.649736   4.981804  -0.038277   0.389466   0.386282
     4  H   -0.033134   0.395810  -0.038277   0.508172  -0.006086   0.003943
     5  H    0.003328  -0.033715   0.389466  -0.006086   0.517268  -0.036841
     6  H   -0.004611  -0.032324   0.386282   0.003943  -0.036841   0.520170
 Mulliken charges:
               1
     1  H    0.167823
     2  C   -0.329791
     3  C   -0.337567
     4  H    0.169573
     5  H    0.166580
     6  H    0.163382
 Sum of Mulliken charges =   0.00000
 Mulliken charges with hydrogens summed into heavy atoms:
               1
     2  C    0.007605
     3  C   -0.007605
 Electronic spatial extent (au):  <R**2>=             83.2504
 Charge=              0.0000 electrons
 Dipole moment (field-independent basis, Debye):
    X=              0.0118    Y=             -0.0367    Z=              0.0216  Tot=              0.0442
 Quadrupole moment (field-independent basis, Debye-Ang):
   XX=            -11.8001   YY=            -11.9712   ZZ=            -15.1472
   XY=             -0.0940   XZ=             -0.0095   YZ=              0.0006
 Traceless Quadrupole moment (field-independent basis, Debye-Ang):
   XX=              1.1727   YY=              1.0017   ZZ=             -2.1744
   XY=             -0.0940   XZ=             -0.0095   YZ=              0.0006
 Octapole moment (field-independent basis, Debye-Ang**2):
  XXX=              0.1335  YYY=             -0.2148  ZZZ=              0.0311  XYY=             -0.0921
  XXY=              0.2233  XXZ=              0.0534  XZZ=             -0.0296  YZZ=             -0.0952
  YYZ=              0.0291  XYZ=             -0.0545
 Hexadecapole moment (field-independent basis, Debye-Ang**3):
 XXXX=            -67.9370 YYYY=            -24.6191 ZZZZ=            -15.9036 XXXY=             -0.4638
 XXXZ=             -0.0283 YYYX=              0.0219 YYYZ=              0.0008 ZZZX=             -0.0071
 ZZZY=             -0.0000 XXYY=            -12.9900 XXZZ=            -14.9109 YYZZ=             -7.3317
 XXYZ=              0.0027 YYXZ=             -0.0143 ZZXY=              0.0313
 N-N= 3.304572595696D+01 E-N=-2.474083639098D+02  KE= 7.778448625468D+01
 1\1\GINC-NODE91\SP\RwB97X\6-31G(d)\C2H4\YANZ\05-Jun-2019\0\\# 6-31g(d)
  wb97x\\tmpdir/M2_ref_164.gjf\\0,1\H,0,6.576856,0.274349,14.797633\C,0
 ,5.557686,-0.092444,14.824609\C,0,4.507447,0.575506,14.199113\H,0,5.32
 560308,-0.95372139,15.29056356\H,0,3.52932312,0.1846243,14.20669486\H,
 0,4.64319807,1.50559817,13.67801642\\Version=ES64L-G16RevA.03\State=1-
 A\HF=-78.5462254\RMSD=4.057e-09\Dipole=-0.0109916,-0.0125364,-0.004907
 7\Quadrupole=0.8106236,0.126154,-0.9367776,0.1829645,0.4000979,-1.0000
 837\PG=C01 [X(C2H4)]\\@


 KNOWLEDGE IS CHIMERA - FOR BEYOND IT LIES OTHER KNOWLEDGE,
 AND THE INCOMPLETENESS OF WHAT IS KNOWN RENDERS THE KNOWING FALSE.
     -- THE THOMAS COVENANT CHRONICLES
 Job cpu time:       0 days  0 hours  0 minutes  8.5 seconds.
 Elapsed time:       0 days  0 hours  0 minutes  4.4 seconds.
 File lengths (MBytes):  RWF=      6 Int=      0 D2E=      0 Chk=      1 Scr=      1
 Normal termination of Gaussian 16 at Wed Jun  5 16:58:40 2019.
