 Entering Gaussian System, Link 0=g16
 Initial command:
 /share/apps/gaussian/g16/l1.exe "/tmp/55477.mgr/Gau-319084.inp" -scrdir="/tmp/55477.mgr/"
 Entering Link 1 = /share/apps/gaussian/g16/l1.exe PID=    319085.
  
 Copyright (c) 1988,1990,1992,1993,1995,1998,2003,2009,2016,
            Gaussian, Inc.  All Rights Reserved.
  
 This is part of the Gaussian(R) 16 program.  It is based on
 the Gaussian(R) 09 system (copyright 2009, Gaussian, Inc.),
 the Gaussian(R) 03 system (copyright 2003, Gaussian, Inc.),
 the Gaussian(R) 98 system (copyright 1998, Gaussian, Inc.),
 the Gaussian(R) 94 system (copyright 1995, Gaussian, Inc.),
 the Gaussian 92(TM) system (copyright 1992, Gaussian, Inc.),
 the Gaussian 90(TM) system (copyright 1990, Gaussian, Inc.),
 the Gaussian 88(TM) system (copyright 1988, Gaussian, Inc.),
 the Gaussian 86(TM) system (copyright 1986, Carnegie Mellon
 University), and the Gaussian 82(TM) system (copyright 1983,
 Carnegie Mellon University). Gaussian is a federally registered
 trademark of Gaussian, Inc.
  
 This software contains proprietary and confidential information,
 including trade secrets, belonging to Gaussian, Inc.
  
 This software is provided under written license and may be
 used, copied, transmitted, or stored only in accord with that
 written license.
  
 The following legend is applicable only to US Government
 contracts under FAR:
  
                    RESTRICTED RIGHTS LEGEND
  
 Use, reproduction and disclosure by the US Government is
 subject to restrictions as set forth in subparagraphs (a)
 and (c) of the Commercial Computer Software - Restricted
 Rights clause in FAR 52.227-19.
  
 Gaussian, Inc.
 340 Quinnipiac St., Bldg. 40, Wallingford CT 06492
  
  
 ---------------------------------------------------------------
 Warning -- This program may not be used in any manner that
 competes with the business of Gaussian, Inc. or will provide
 assistance to any competitor of Gaussian, Inc.  The licensee
 of this program is prohibited from giving any competitor of
 Gaussian, Inc. access to this program.  By using this program,
 the user acknowledges that Gaussian, Inc. is engaged in the
 business of creating and licensing software in the field of
 computational chemistry and represents and warrants to the
 licensee that it is not a competitor of Gaussian, Inc. and that
 it will not use this program in any manner prohibited above.
 ---------------------------------------------------------------
  

 Cite this work as:
 Gaussian 16, Revision A.03,
 M. J. Frisch, G. W. Trucks, H. B. Schlegel, G. E. Scuseria, 
 M. A. Robb, J. R. Cheeseman, G. Scalmani, V. Barone, 
 G. A. Petersson, H. Nakatsuji, X. Li, M. Caricato, A. V. Marenich, 
 J. Bloino, B. G. Janesko, R. Gomperts, B. Mennucci, H. P. Hratchian, 
 J. V. Ortiz, A. F. Izmaylov, J. L. Sonnenberg, D. Williams-Young, 
 F. Ding, F. Lipparini, F. Egidi, J. Goings, B. Peng, A. Petrone, 
 T. Henderson, D. Ranasinghe, V. G. Zakrzewski, J. Gao, N. Rega, 
 G. Zheng, W. Liang, M. Hada, M. Ehara, K. Toyota, R. Fukuda, 
 J. Hasegawa, M. Ishida, T. Nakajima, Y. Honda, O. Kitao, H. Nakai, 
 T. Vreven, K. Throssell, J. A. Montgomery, Jr., J. E. Peralta, 
 F. Ogliaro, M. J. Bearpark, J. J. Heyd, E. N. Brothers, K. N. Kudin, 
 V. N. Staroverov, T. A. Keith, R. Kobayashi, J. Normand, 
 K. Raghavachari, A. P. Rendell, J. C. Burant, S. S. Iyengar, 
 J. Tomasi, M. Cossi, J. M. Millam, M. Klene, C. Adamo, R. Cammi, 
 J. W. Ochterski, R. L. Martin, K. Morokuma, O. Farkas, 
 J. B. Foresman, and D. J. Fox, Gaussian, Inc., Wallingford CT, 2016.
 
 ******************************************
 Gaussian 16:  ES64L-G16RevA.03 25-Dec-2016
                 5-Jun-2019 
 ******************************************
 %nprocshared=2
 Will use up to    2 processors via shared memory.
 %mem=2GB
 ----------------
 # 6-31g(d) wb97x
 ----------------
 1/38=1,172=1/1;
 2/12=2,17=6,18=5,40=1/2;
 3/5=1,6=6,7=1,11=2,25=1,30=1,74=-57/1,2,3;
 4//1;
 5/5=2,38=5/2;
 6/7=2,8=2,9=2,10=2,28=1/1;
 99/5=1,9=1/99;
 ---------------------
 tmpdir/M2_ref_145.gjf
 ---------------------
 Symbolic Z-matrix:
 Charge =  0 Multiplicity = 1
 H                     1.85535  -2.50958   15.43048 
 N                     1.82945  -1.65096   14.90158 
 C                     3.07472  -1.07368   14.84766 
 H                     0.9552   -1.38973   14.53928 
 O                     3.25499   0.029     14.23605 
 H                     3.81248  -1.63635   15.35854 
 
                          Input orientation:                          
 ---------------------------------------------------------------------
 Center     Atomic      Atomic             Coordinates (Angstroms)
 Number     Number       Type             X           Y           Z
 ---------------------------------------------------------------------
      1          1           0        1.855350   -2.509577   15.430483
      2          7           0        1.829453   -1.650958   14.901584
      3          6           0        3.074716   -1.073680   14.847659
      4          1           0        0.955196   -1.389725   14.539281
      5          8           0        3.254987    0.028997   14.236054
      6          1           0        3.812475   -1.636354   15.358536
 ---------------------------------------------------------------------
                    Distance matrix (angstroms):
                    1          2          3          4          5
     1  H    0.000000
     2  N    1.008777   0.000000
     3  C    1.971887   1.373622   0.000000
     4  H    1.690736   0.981749   2.165028   0.000000
     5  O    3.135283   2.301592   1.273756   2.719147   0.000000
     6  H    2.144303   2.035042   1.059191   2.982625   2.084263
                    6
     6  H    0.000000
 Stoichiometry    CH3NO
 Framework group  C1[X(CH3NO)]
 Deg. of freedom    12
 Full point group                 C1      NOp   1
 Largest Abelian subgroup         C1      NOp   1
 Largest concise Abelian subgroup C1      NOp   1
                         Standard orientation:                         
 ---------------------------------------------------------------------
 Center     Atomic      Atomic             Coordinates (Angstroms)
 Number     Number       Type             X           Y           Z
 ---------------------------------------------------------------------
      1          1           0        1.822077    0.495016    0.008603
      2          7           0        1.079839   -0.188087   -0.000553
      3          6           0       -0.148593    0.426559   -0.001946
      4          1           0        1.356031   -1.130185   -0.001889
      5          8           0       -1.220585   -0.261394    0.001092
      6          1           0       -0.080742    1.483573    0.000096
 ---------------------------------------------------------------------
 Rotational constants (GHZ):          67.4176784          11.1236847           9.5483047
 Standard basis: 6-31G(d) (6D, 7F)
 There are    51 symmetry adapted cartesian basis functions of A   symmetry.
 There are    51 symmetry adapted basis functions of A   symmetry.
    51 basis functions,    96 primitive gaussians,    51 cartesian basis functions
    12 alpha electrons       12 beta electrons
       nuclear repulsion energy        70.0121195264 Hartrees.
 NAtoms=    6 NActive=    6 NUniq=    6 SFac= 1.00D+00 NAtFMM=   60 NAOKFM=F Big=F
 Integral buffers will be    131072 words long.
 Raffenetti 2 integral format.
 Two-electron integral symmetry is turned on.
 One-electron integrals computed using PRISM.
 NBasis=    51 RedAO= T EigKep=  6.15D-03  NBF=    51
 NBsUse=    51 1.00D-06 EigRej= -1.00D+00 NBFU=    51
 ExpMin= 1.61D-01 ExpMax= 5.48D+03 ExpMxC= 8.25D+02 IAcc=3 IRadAn=         5 AccDes= 0.00D+00
 Harris functional with IExCor= 4538 and IRadAn=       5 diagonalized for initial guess.
 HarFok:  IExCor= 4538 AccDes= 0.00D+00 IRadAn=         5 IDoV= 1 UseB2=F ITyADJ=14
 ICtDFT=  3500011 ScaDFX=  1.000000  1.000000  1.000000  1.000000
 FoFCou: FMM=F IPFlag=           0 FMFlag=      100000 FMFlg1=           0
         NFxFlg=           0 DoJE=T BraDBF=F KetDBF=T FulRan=T
         wScrn=  0.000000 ICntrl=       500 IOpCl=  0 I1Cent=   200000004 NGrid=           0
         NMat0=    1 NMatS0=      1 NMatT0=    0 NMatD0=    1 NMtDS0=    0 NMtDT0=    0
 Petite list used in FoFCou.
 Keep R1 ints in memory in canonical form, NReq=3503041.
 Requested convergence on RMS density matrix=1.00D-08 within 128 cycles.
 Requested convergence on MAX density matrix=1.00D-06.
 Requested convergence on             energy=1.00D-06.
 No special actions if energy rises.
 Integral accuracy reduced to 1.0D-05 until final iterations.
 Initial convergence to 1.0D-05 achieved.  Increase integral accuracy.
 SCF Done:  E(RwB97X) =  -169.829149443     A.U. after   15 cycles
            NFock= 15  Conv=0.70D-08     -V/T= 2.0096

 **********************************************************************

            Population analysis using the SCF density.

 **********************************************************************

 Orbital symmetries:
       Occupied  (A) (A) (A) (A) (A) (A) (A) (A) (A) (A) (A) (A)
       Virtual   (A) (A) (A) (A) (A) (A) (A) (A) (A) (A) (A) (A)
                 (A) (A) (A) (A) (A) (A) (A) (A) (A) (A) (A) (A)
                 (A) (A) (A) (A) (A) (A) (A) (A) (A) (A) (A) (A)
                 (A) (A) (A)
 The electronic state is 1-A.
 Alpha  occ. eigenvalues --  -19.17954 -14.44199 -10.38029  -1.13016  -1.03275
 Alpha  occ. eigenvalues --   -0.76693  -0.65291  -0.61095  -0.50509  -0.50110
 Alpha  occ. eigenvalues --   -0.36469  -0.35180
 Alpha virt. eigenvalues --    0.10891   0.17541   0.20675   0.27923   0.35339
 Alpha virt. eigenvalues --    0.43394   0.64579   0.65609   0.74412   0.75568
 Alpha virt. eigenvalues --    0.80322   0.82417   0.96261   0.98935   0.99900
 Alpha virt. eigenvalues --    1.02487   1.12152   1.19511   1.29028   1.41030
 Alpha virt. eigenvalues --    1.47370   1.57118   1.61093   1.78617   1.90602
 Alpha virt. eigenvalues --    1.96712   1.97726   2.08896   2.16953   2.38769
 Alpha virt. eigenvalues --    2.41642   2.56573   2.66701   2.70269   2.99729
 Alpha virt. eigenvalues --    3.10623   3.85515   3.92249   4.30225
          Condensed to atoms (all electrons):
               1          2          3          4          5          6
     1  H    0.388999   0.299651  -0.014189  -0.019761   0.003354   0.005465
     2  N    0.299651   7.040811   0.265447   0.318853  -0.092624  -0.107553
     3  C   -0.014189   0.265447   4.471743  -0.005417   0.564276   0.378759
     4  H   -0.019761   0.318853  -0.005417   0.326442   0.002482   0.004122
     5  O    0.003354  -0.092624   0.564276   0.002482   8.043944  -0.040906
     6  H    0.005465  -0.107553   0.378759   0.004122  -0.040906   0.604143
 Mulliken charges:
               1
     1  H    0.336481
     2  N   -0.724586
     3  C    0.339381
     4  H    0.373280
     5  O   -0.480526
     6  H    0.155970
 Sum of Mulliken charges =  -0.00000
 Mulliken charges with hydrogens summed into heavy atoms:
               1
     2  N   -0.014825
     3  C    0.495351
     5  O   -0.480526
 Electronic spatial extent (au):  <R**2>=            148.2020
 Charge=             -0.0000 electrons
 Dipole moment (field-independent basis, Debye):
    X=              4.0872    Y=              1.1582    Z=              0.0069  Tot=              4.2482
 Quadrupole moment (field-independent basis, Debye-Ang):
   XX=            -17.6065   YY=            -14.3797   ZZ=            -18.5079
   XY=             -1.3968   XZ=              0.0299   YZ=              0.0143
 Traceless Quadrupole moment (field-independent basis, Debye-Ang):
   XX=             -0.7752   YY=              2.4517   ZZ=             -1.6765
   XY=             -1.3968   XZ=              0.0299   YZ=              0.0143
 Octapole moment (field-independent basis, Debye-Ang**2):
  XXX=             12.2473  YYY=             -1.5255  ZZZ=              0.0129  XYY=              3.4922
  XXY=             -0.1339  XXZ=              0.0577  XZZ=             -1.3703  YZZ=             -0.1826
  YYZ=              0.0025  XYZ=              0.0218
 Hexadecapole moment (field-independent basis, Debye-Ang**3):
 XXXX=           -110.2923 YYYY=            -31.0999 ZZZZ=            -15.7005 XXXY=              0.3448
 XXXZ=              0.1106 YYYX=             -3.6222 YYYZ=              0.0203 ZZZX=              0.0148
 ZZZY=              0.0077 XXYY=            -21.0107 XXZZ=            -23.9496 YYZZ=             -8.8815
 XXYZ=              0.0357 YYXZ=              0.0042 ZZXY=              0.2521
 N-N= 7.001211952641D+01 E-N=-5.377708388939D+02  KE= 1.682124907526D+02
 1\1\GINC-NODE91\SP\RwB97X\6-31G(d)\C1H3N1O1\YANZ\05-Jun-2019\0\\# 6-31
 g(d) wb97x\\tmpdir/M2_ref_145.gjf\\0,1\H,0,1.85535,-2.509577,15.430483
 \N,0,1.829453,-1.650958,14.901584\C,0,3.074716,-1.07368,14.847659\H,0,
 0.95519561,-1.38972519,14.539281\O,0,3.25498676,0.02899704,14.23605409
 \H,0,3.81247536,-1.63635383,15.3585355\\Version=ES64L-G16RevA.03\State
 =1-A\HF=-169.8291494\RMSD=7.010e-09\Dipole=-0.6980935,-1.3695132,0.656
 1427\Quadrupole=1.7010146,-0.9196536,-0.7813611,-0.5745384,1.0259146,-
 0.3545703\PG=C01 [X(C1H3N1O1)]\\@


 WE'RE IN THE POSITION OF A VISITOR FROM ANOTHER
 DIMENSION WHO COMES TO EARTH AND SEES A CHESS MATCH.
 ASSUMING HE KNOWS IT'S A GAME, HE'S GOT TWO PROBLEMS:
 FIRST, FIGURE OUT THE RULES, AND SECOND, FIGURE OUT HOW TO WIN.
 NINETY PERCENT OF SCIENCE (INCLUDING VIRTUALLY ALL OF CHEMISRY)
 IS IN THAT SECOND CATEGORY.  THEY'RE TRYING TO APPLY
 THE LAWS THAT ARE ALREADY KNOWN.

                     -- SHELDON GLASHOW, 1979
 Job cpu time:       0 days  0 hours  0 minutes 11.3 seconds.
 Elapsed time:       0 days  0 hours  0 minutes  5.7 seconds.
 File lengths (MBytes):  RWF=      6 Int=      0 D2E=      0 Chk=      1 Scr=      1
 Normal termination of Gaussian 16 at Wed Jun  5 16:58:11 2019.
