 Entering Gaussian System, Link 0=g16
 Initial command:
 /share/apps/gaussian/g16/l1.exe "/tmp/55477.mgr/Gau-318073.inp" -scrdir="/tmp/55477.mgr/"
 Entering Link 1 = /share/apps/gaussian/g16/l1.exe PID=    318075.
  
 Copyright (c) 1988,1990,1992,1993,1995,1998,2003,2009,2016,
            Gaussian, Inc.  All Rights Reserved.
  
 This is part of the Gaussian(R) 16 program.  It is based on
 the Gaussian(R) 09 system (copyright 2009, Gaussian, Inc.),
 the Gaussian(R) 03 system (copyright 2003, Gaussian, Inc.),
 the Gaussian(R) 98 system (copyright 1998, Gaussian, Inc.),
 the Gaussian(R) 94 system (copyright 1995, Gaussian, Inc.),
 the Gaussian 92(TM) system (copyright 1992, Gaussian, Inc.),
 the Gaussian 90(TM) system (copyright 1990, Gaussian, Inc.),
 the Gaussian 88(TM) system (copyright 1988, Gaussian, Inc.),
 the Gaussian 86(TM) system (copyright 1986, Carnegie Mellon
 University), and the Gaussian 82(TM) system (copyright 1983,
 Carnegie Mellon University). Gaussian is a federally registered
 trademark of Gaussian, Inc.
  
 This software contains proprietary and confidential information,
 including trade secrets, belonging to Gaussian, Inc.
  
 This software is provided under written license and may be
 used, copied, transmitted, or stored only in accord with that
 written license.
  
 The following legend is applicable only to US Government
 contracts under FAR:
  
                    RESTRICTED RIGHTS LEGEND
  
 Use, reproduction and disclosure by the US Government is
 subject to restrictions as set forth in subparagraphs (a)
 and (c) of the Commercial Computer Software - Restricted
 Rights clause in FAR 52.227-19.
  
 Gaussian, Inc.
 340 Quinnipiac St., Bldg. 40, Wallingford CT 06492
  
  
 ---------------------------------------------------------------
 Warning -- This program may not be used in any manner that
 competes with the business of Gaussian, Inc. or will provide
 assistance to any competitor of Gaussian, Inc.  The licensee
 of this program is prohibited from giving any competitor of
 Gaussian, Inc. access to this program.  By using this program,
 the user acknowledges that Gaussian, Inc. is engaged in the
 business of creating and licensing software in the field of
 computational chemistry and represents and warrants to the
 licensee that it is not a competitor of Gaussian, Inc. and that
 it will not use this program in any manner prohibited above.
 ---------------------------------------------------------------
  

 Cite this work as:
 Gaussian 16, Revision A.03,
 M. J. Frisch, G. W. Trucks, H. B. Schlegel, G. E. Scuseria, 
 M. A. Robb, J. R. Cheeseman, G. Scalmani, V. Barone, 
 G. A. Petersson, H. Nakatsuji, X. Li, M. Caricato, A. V. Marenich, 
 J. Bloino, B. G. Janesko, R. Gomperts, B. Mennucci, H. P. Hratchian, 
 J. V. Ortiz, A. F. Izmaylov, J. L. Sonnenberg, D. Williams-Young, 
 F. Ding, F. Lipparini, F. Egidi, J. Goings, B. Peng, A. Petrone, 
 T. Henderson, D. Ranasinghe, V. G. Zakrzewski, J. Gao, N. Rega, 
 G. Zheng, W. Liang, M. Hada, M. Ehara, K. Toyota, R. Fukuda, 
 J. Hasegawa, M. Ishida, T. Nakajima, Y. Honda, O. Kitao, H. Nakai, 
 T. Vreven, K. Throssell, J. A. Montgomery, Jr., J. E. Peralta, 
 F. Ogliaro, M. J. Bearpark, J. J. Heyd, E. N. Brothers, K. N. Kudin, 
 V. N. Staroverov, T. A. Keith, R. Kobayashi, J. Normand, 
 K. Raghavachari, A. P. Rendell, J. C. Burant, S. S. Iyengar, 
 J. Tomasi, M. Cossi, J. M. Millam, M. Klene, C. Adamo, R. Cammi, 
 J. W. Ochterski, R. L. Martin, K. Morokuma, O. Farkas, 
 J. B. Foresman, and D. J. Fox, Gaussian, Inc., Wallingford CT, 2016.
 
 ******************************************
 Gaussian 16:  ES64L-G16RevA.03 25-Dec-2016
                 5-Jun-2019 
 ******************************************
 %nprocshared=2
 Will use up to    2 processors via shared memory.
 %mem=2GB
 ----------------
 # 6-31g(d) wb97x
 ----------------
 1/38=1,172=1/1;
 2/12=2,17=6,18=5,40=1/2;
 3/5=1,6=6,7=1,11=2,25=1,30=1,74=-57/1,2,3;
 4//1;
 5/5=2,38=5/2;
 6/7=2,8=2,9=2,10=2,28=1/1;
 99/5=1,9=1/99;
 -------------------
 tmpdir/M2_ref_4.gjf
 -------------------
 Symbolic Z-matrix:
 Charge =  0 Multiplicity = 1
 H                    -3.98842   8.23874   7.2062 
 C                    -4.26962   8.04416   8.25905 
 H                    -3.77997   8.80014   8.88436 
 H                    -5.36275   8.13541   8.36038 
 H                    -3.92562   7.00657   8.59872 
 
                          Input orientation:                          
 ---------------------------------------------------------------------
 Center     Atomic      Atomic             Coordinates (Angstroms)
 Number     Number       Type             X           Y           Z
 ---------------------------------------------------------------------
      1          1           0       -3.988423    8.238737    7.206202
      2          6           0       -4.269619    8.044160    8.259048
      3          1           0       -3.779965    8.800140    8.884362
      4          1           0       -5.362752    8.135408    8.360375
      5          1           0       -3.925616    7.006567    8.598719
 ---------------------------------------------------------------------
                    Distance matrix (angstroms):
                    1          2          3          4          5
     1  H    0.000000
     2  C    1.106985   0.000000
     3  H    1.781811   1.096487   0.000000
     4  H    1.797658   1.101605   1.794894   0.000000
     5  H    1.860454   1.144689   1.822007   1.842946   0.000000
 Stoichiometry    CH4
 Framework group  C1[X(CH4)]
 Deg. of freedom     9
 Full point group                 C1      NOp   1
 Largest Abelian subgroup         C1      NOp   1
 Largest concise Abelian subgroup C1      NOp   1
                         Standard orientation:                         
 ---------------------------------------------------------------------
 Center     Atomic      Atomic             Coordinates (Angstroms)
 Number     Number       Type             X           Y           Z
 ---------------------------------------------------------------------
      1          1           0        0.619736   -0.531971   -0.748203
      2          6           0        0.000962    0.001871   -0.001511
      3          1           0        0.154952   -0.480323    0.971145
      4          1           0        0.331015    1.051488    0.052341
      5          1           0       -1.111473   -0.050418   -0.266215
 ---------------------------------------------------------------------
 Rotational constants (GHZ):         156.7797114         150.6053226         148.5818355
 Standard basis: 6-31G(d) (6D, 7F)
 There are    23 symmetry adapted cartesian basis functions of A   symmetry.
 There are    23 symmetry adapted basis functions of A   symmetry.
    23 basis functions,    44 primitive gaussians,    23 cartesian basis functions
     5 alpha electrons        5 beta electrons
       nuclear repulsion energy        13.1680161882 Hartrees.
 NAtoms=    5 NActive=    5 NUniq=    5 SFac= 1.00D+00 NAtFMM=   60 NAOKFM=F Big=F
 Integral buffers will be    131072 words long.
 Raffenetti 2 integral format.
 Two-electron integral symmetry is turned on.
 One-electron integrals computed using PRISM.
 NBasis=    23 RedAO= T EigKep=  1.90D-02  NBF=    23
 NBsUse=    23 1.00D-06 EigRej= -1.00D+00 NBFU=    23
 ExpMin= 1.61D-01 ExpMax= 3.05D+03 ExpMxC= 4.57D+02 IAcc=3 IRadAn=         5 AccDes= 0.00D+00
 Harris functional with IExCor= 4538 and IRadAn=       5 diagonalized for initial guess.
 HarFok:  IExCor= 4538 AccDes= 0.00D+00 IRadAn=         5 IDoV= 1 UseB2=F ITyADJ=14
 ICtDFT=  3500011 ScaDFX=  1.000000  1.000000  1.000000  1.000000
 FoFCou: FMM=F IPFlag=           0 FMFlag=      100000 FMFlg1=           0
         NFxFlg=           0 DoJE=T BraDBF=F KetDBF=T FulRan=T
         wScrn=  0.000000 ICntrl=       500 IOpCl=  0 I1Cent=   200000004 NGrid=           0
         NMat0=    1 NMatS0=      1 NMatT0=    0 NMatD0=    1 NMtDS0=    0 NMtDT0=    0
 Petite list used in FoFCou.
 Keep R1 ints in memory in canonical form, NReq=1800744.
 Requested convergence on RMS density matrix=1.00D-08 within 128 cycles.
 Requested convergence on MAX density matrix=1.00D-06.
 Requested convergence on             energy=1.00D-06.
 No special actions if energy rises.
 Integral accuracy reduced to 1.0D-05 until final iterations.
 Initial convergence to 1.0D-05 achieved.  Increase integral accuracy.
 SCF Done:  E(RwB97X) =  -40.4976189595     A.U. after   11 cycles
            NFock= 11  Conv=0.21D-08     -V/T= 2.0134

 **********************************************************************

            Population analysis using the SCF density.

 **********************************************************************

 Orbital symmetries:
       Occupied  (A) (A) (A) (A) (A)
       Virtual   (A) (A) (A) (A) (A) (A) (A) (A) (A) (A) (A) (A)
                 (A) (A) (A) (A) (A) (A)
 The electronic state is 1-A.
 Alpha  occ. eigenvalues --  -10.25722  -0.81226  -0.49474  -0.49241  -0.48739
 Alpha virt. eigenvalues --    0.21075   0.26368   0.27103   0.27407   0.64009
 Alpha virt. eigenvalues --    0.64253   0.65636   0.98655   1.00771   1.01374
 Alpha virt. eigenvalues --    1.04981   1.20190   1.76021   1.76278   2.29702
 Alpha virt. eigenvalues --    2.34310   2.35247   4.29422
          Condensed to atoms (all electrons):
               1          2          3          4          5
     1  H    0.522698   0.383173  -0.026109  -0.024940  -0.020759
     2  C    0.383173   5.128199   0.383742   0.383865   0.379567
     3  H   -0.026109   0.383742   0.522833  -0.024318  -0.024014
     4  H   -0.024940   0.383865  -0.024318   0.520216  -0.022387
     5  H   -0.020759   0.379567  -0.024014  -0.022387   0.530413
 Mulliken charges:
               1
     1  H    0.165936
     2  C   -0.658546
     3  H    0.167866
     4  H    0.167563
     5  H    0.157181
 Sum of Mulliken charges =  -0.00000
 Mulliken charges with hydrogens summed into heavy atoms:
               1
     2  C   -0.000000
 Electronic spatial extent (au):  <R**2>=             36.1983
 Charge=             -0.0000 electrons
 Dipole moment (field-independent basis, Debye):
    X=              0.0382    Y=             -0.0048    Z=              0.0258  Tot=              0.0463
 Quadrupole moment (field-independent basis, Debye-Ang):
   XX=             -8.2167   YY=             -8.3065   ZZ=             -8.3817
   XY=             -0.0006   XZ=             -0.0182   YZ=             -0.0080
 Traceless Quadrupole moment (field-independent basis, Debye-Ang):
   XX=              0.0849   YY=             -0.0048   ZZ=             -0.0801
   XY=             -0.0006   XZ=             -0.0182   YZ=             -0.0080
 Octapole moment (field-independent basis, Debye-Ang**2):
  XXX=             -0.6777  YYY=              0.6710  ZZZ=              0.4336  XYY=              0.4915
  XXY=             -0.1270  XXZ=             -0.4126  XZZ=              0.3631  YZZ=             -0.5483
  YYZ=              0.0814  XYZ=              0.1344
 Hexadecapole moment (field-independent basis, Debye-Ang**3):
 XXXX=            -15.6369 YYYY=            -15.1981 ZZZZ=            -15.2736 XXXY=             -0.0262
 XXXZ=              0.1750 YYYX=              0.3089 YYYZ=              0.0557 ZZZX=             -0.1483
 ZZZY=             -0.2633 XXYY=             -5.4430 XXZZ=             -5.3311 YYZZ=             -5.1318
 XXYZ=              0.1807 YYXZ=             -0.0998 ZZXY=             -0.2826
 N-N= 1.316801618816D+01 E-N=-1.192737211123D+02  KE= 3.996158784026D+01
 1\1\GINC-NODE91\SP\RwB97X\6-31G(d)\C1H4\YANZ\05-Jun-2019\0\\# 6-31g(d)
  wb97x\\tmpdir/M2_ref_4.gjf\\0,1\H,0,-3.988423,8.238737,7.206202\C,0,-
 4.269619,8.04416,8.259048\H,0,-3.779965,8.80014,8.884362\H,0,-5.362752
 01,8.135408,8.36037539\H,0,-3.92561578,7.00656732,8.59871872\\Version=
 ES64L-G16RevA.03\State=1-A\HF=-40.497619\RMSD=2.118e-09\Dipole=-0.0016
 872,0.0181367,0.0003048\Quadrupole=0.0025521,0.0126159,-0.0151679,-0.0
 126613,0.0143505,-0.0585495\PG=C01 [X(C1H4)]\\@


 ... SUBJECTS WHICH DISCLOSE THEIR FULL POWER, MEANING AND BEAUTY AS SOON
 AS THEY ARE PRESENTED TO THE MIND HAVE VERY LITTLE OF THOSE QUALITIES
 TO DISCLOSE.
                           -- CHARLES DUTTON (1882)
 Job cpu time:       0 days  0 hours  0 minutes  5.4 seconds.
 Elapsed time:       0 days  0 hours  0 minutes  2.8 seconds.
 File lengths (MBytes):  RWF=      6 Int=      0 D2E=      0 Chk=      1 Scr=      1
 Normal termination of Gaussian 16 at Wed Jun  5 16:57:24 2019.
