 Entering Gaussian System, Link 0=g16
 Initial command:
 /share/apps/gaussian/g16/l1.exe "/tmp/55477.mgr/Gau-319949.inp" -scrdir="/tmp/55477.mgr/"
 Entering Link 1 = /share/apps/gaussian/g16/l1.exe PID=    319950.
  
 Copyright (c) 1988,1990,1992,1993,1995,1998,2003,2009,2016,
            Gaussian, Inc.  All Rights Reserved.
  
 This is part of the Gaussian(R) 16 program.  It is based on
 the Gaussian(R) 09 system (copyright 2009, Gaussian, Inc.),
 the Gaussian(R) 03 system (copyright 2003, Gaussian, Inc.),
 the Gaussian(R) 98 system (copyright 1998, Gaussian, Inc.),
 the Gaussian(R) 94 system (copyright 1995, Gaussian, Inc.),
 the Gaussian 92(TM) system (copyright 1992, Gaussian, Inc.),
 the Gaussian 90(TM) system (copyright 1990, Gaussian, Inc.),
 the Gaussian 88(TM) system (copyright 1988, Gaussian, Inc.),
 the Gaussian 86(TM) system (copyright 1986, Carnegie Mellon
 University), and the Gaussian 82(TM) system (copyright 1983,
 Carnegie Mellon University). Gaussian is a federally registered
 trademark of Gaussian, Inc.
  
 This software contains proprietary and confidential information,
 including trade secrets, belonging to Gaussian, Inc.
  
 This software is provided under written license and may be
 used, copied, transmitted, or stored only in accord with that
 written license.
  
 The following legend is applicable only to US Government
 contracts under FAR:
  
                    RESTRICTED RIGHTS LEGEND
  
 Use, reproduction and disclosure by the US Government is
 subject to restrictions as set forth in subparagraphs (a)
 and (c) of the Commercial Computer Software - Restricted
 Rights clause in FAR 52.227-19.
  
 Gaussian, Inc.
 340 Quinnipiac St., Bldg. 40, Wallingford CT 06492
  
  
 ---------------------------------------------------------------
 Warning -- This program may not be used in any manner that
 competes with the business of Gaussian, Inc. or will provide
 assistance to any competitor of Gaussian, Inc.  The licensee
 of this program is prohibited from giving any competitor of
 Gaussian, Inc. access to this program.  By using this program,
 the user acknowledges that Gaussian, Inc. is engaged in the
 business of creating and licensing software in the field of
 computational chemistry and represents and warrants to the
 licensee that it is not a competitor of Gaussian, Inc. and that
 it will not use this program in any manner prohibited above.
 ---------------------------------------------------------------
  

 Cite this work as:
 Gaussian 16, Revision A.03,
 M. J. Frisch, G. W. Trucks, H. B. Schlegel, G. E. Scuseria, 
 M. A. Robb, J. R. Cheeseman, G. Scalmani, V. Barone, 
 G. A. Petersson, H. Nakatsuji, X. Li, M. Caricato, A. V. Marenich, 
 J. Bloino, B. G. Janesko, R. Gomperts, B. Mennucci, H. P. Hratchian, 
 J. V. Ortiz, A. F. Izmaylov, J. L. Sonnenberg, D. Williams-Young, 
 F. Ding, F. Lipparini, F. Egidi, J. Goings, B. Peng, A. Petrone, 
 T. Henderson, D. Ranasinghe, V. G. Zakrzewski, J. Gao, N. Rega, 
 G. Zheng, W. Liang, M. Hada, M. Ehara, K. Toyota, R. Fukuda, 
 J. Hasegawa, M. Ishida, T. Nakajima, Y. Honda, O. Kitao, H. Nakai, 
 T. Vreven, K. Throssell, J. A. Montgomery, Jr., J. E. Peralta, 
 F. Ogliaro, M. J. Bearpark, J. J. Heyd, E. N. Brothers, K. N. Kudin, 
 V. N. Staroverov, T. A. Keith, R. Kobayashi, J. Normand, 
 K. Raghavachari, A. P. Rendell, J. C. Burant, S. S. Iyengar, 
 J. Tomasi, M. Cossi, J. M. Millam, M. Klene, C. Adamo, R. Cammi, 
 J. W. Ochterski, R. L. Martin, K. Morokuma, O. Farkas, 
 J. B. Foresman, and D. J. Fox, Gaussian, Inc., Wallingford CT, 2016.
 
 ******************************************
 Gaussian 16:  ES64L-G16RevA.03 25-Dec-2016
                 5-Jun-2019 
 ******************************************
 %nprocshared=2
 Will use up to    2 processors via shared memory.
 %mem=2GB
 ----------------
 # 6-31g(d) wb97x
 ----------------
 1/38=1,172=1/1;
 2/12=2,17=6,18=5,40=1/2;
 3/5=1,6=6,7=1,11=2,25=1,30=1,74=-57/1,2,3;
 4//1;
 5/5=2,38=5/2;
 6/7=2,8=2,9=2,10=2,28=1/1;
 99/5=1,9=1/99;
 ---------------------
 tmpdir/M2_ref_193.gjf
 ---------------------
 Symbolic Z-matrix:
 Charge =  0 Multiplicity = 1
 C                     4.69498   1.86037   13.47925 
 C                     5.75709   2.72061   13.76777 
 H                     6.47025   2.4715    14.55324 
 H                     4.55923   0.93027   14.00035 
 O                     3.89579   2.21016   12.61206 
 O                     5.95632   3.83466   13.18067 
 
                          Input orientation:                          
 ---------------------------------------------------------------------
 Center     Atomic      Atomic             Coordinates (Angstroms)
 Number     Number       Type             X           Y           Z
 ---------------------------------------------------------------------
      1          6           0        4.694978    1.860366   13.479253
      2          6           0        5.757091    2.720608   13.767767
      3          1           0        6.470246    2.471497   14.553239
      4          1           0        4.559227    0.930274   14.000350
      5          8           0        3.895789    2.210159   12.612057
      6          8           0        5.956316    3.834662   13.180674
 ---------------------------------------------------------------------
                    Distance matrix (angstroms):
                    1          2          3          4          5
     1  C    0.000000
     2  C    1.396904   0.000000
     3  H    2.162985   1.089776   0.000000
     4  H    1.074729   2.166626   2.516555   0.000000
     5  O    1.230076   2.249594   3.234860   2.001403   0.000000
     6  O    2.361772   1.274945   2.001569   3.325537   2.684792
                    6
     6  O    0.000000
 Stoichiometry    C2H2O2
 Framework group  C1[X(C2H2O2)]
 Deg. of freedom    12
 Full point group                 C1      NOp   1
 Largest Abelian subgroup         C1      NOp   1
 Largest concise Abelian subgroup C1      NOp   1
                         Standard orientation:                         
 ---------------------------------------------------------------------
 Center     Atomic      Atomic             Coordinates (Angstroms)
 Number     Number       Type             X           Y           Z
 ---------------------------------------------------------------------
      1          6           0        0.741858    0.502181   -0.006158
      2          6           0       -0.654960    0.516952   -0.001463
      3          1           0       -1.195958    1.462543    0.026688
      4          1           0        1.319848    1.408244   -0.001986
      5          8           0        1.301695   -0.593067    0.003971
      6          8           0       -1.382355   -0.530131   -0.001343
 ---------------------------------------------------------------------
 Rotational constants (GHZ):          24.8093559           6.9595016           5.4350684
 Standard basis: 6-31G(d) (6D, 7F)
 There are    64 symmetry adapted cartesian basis functions of A   symmetry.
 There are    64 symmetry adapted basis functions of A   symmetry.
    64 basis functions,   120 primitive gaussians,    64 cartesian basis functions
    15 alpha electrons       15 beta electrons
       nuclear repulsion energy       104.6938281749 Hartrees.
 NAtoms=    6 NActive=    6 NUniq=    6 SFac= 1.00D+00 NAtFMM=   60 NAOKFM=F Big=F
 Integral buffers will be    131072 words long.
 Raffenetti 2 integral format.
 Two-electron integral symmetry is turned on.
 One-electron integrals computed using PRISM.
 NBasis=    64 RedAO= T EigKep=  2.94D-03  NBF=    64
 NBsUse=    64 1.00D-06 EigRej= -1.00D+00 NBFU=    64
 ExpMin= 1.61D-01 ExpMax= 5.48D+03 ExpMxC= 8.25D+02 IAcc=3 IRadAn=         5 AccDes= 0.00D+00
 Harris functional with IExCor= 4538 and IRadAn=       5 diagonalized for initial guess.
 HarFok:  IExCor= 4538 AccDes= 0.00D+00 IRadAn=         5 IDoV= 1 UseB2=F ITyADJ=14
 ICtDFT=  3500011 ScaDFX=  1.000000  1.000000  1.000000  1.000000
 FoFCou: FMM=F IPFlag=           0 FMFlag=      100000 FMFlg1=           0
         NFxFlg=           0 DoJE=T BraDBF=F KetDBF=T FulRan=T
         wScrn=  0.000000 ICntrl=       500 IOpCl=  0 I1Cent=   200000004 NGrid=           0
         NMat0=    1 NMatS0=      1 NMatT0=    0 NMatD0=    1 NMtDS0=    0 NMtDT0=    0
 Petite list used in FoFCou.
 Keep R1 ints in memory in canonical form, NReq=6104720.
 Requested convergence on RMS density matrix=1.00D-08 within 128 cycles.
 Requested convergence on MAX density matrix=1.00D-06.
 Requested convergence on             energy=1.00D-06.
 No special actions if energy rises.
 Integral accuracy reduced to 1.0D-05 until final iterations.
 Initial convergence to 1.0D-05 achieved.  Increase integral accuracy.
 SCF Done:  E(RwB97X) =  -227.732046891     A.U. after   17 cycles
            NFock= 17  Conv=0.10D-08     -V/T= 2.0085

 **********************************************************************

            Population analysis using the SCF density.

 **********************************************************************

 Orbital symmetries:
       Occupied  (A) (A) (A) (A) (A) (A) (A) (A) (A) (A) (A) (A)
                 (A) (A) (A)
       Virtual   (A) (A) (A) (A) (A) (A) (A) (A) (A) (A) (A) (A)
                 (A) (A) (A) (A) (A) (A) (A) (A) (A) (A) (A) (A)
                 (A) (A) (A) (A) (A) (A) (A) (A) (A) (A) (A) (A)
                 (A) (A) (A) (A) (A) (A) (A) (A) (A) (A) (A) (A)
                 (A)
 The electronic state is 1-A.
 Alpha  occ. eigenvalues --  -19.25760 -19.25535 -10.38533 -10.38477  -1.20884
 Alpha  occ. eigenvalues --   -1.15997  -0.88104  -0.69927  -0.66779  -0.57931
 Alpha  occ. eigenvalues --   -0.55731  -0.54751  -0.47098  -0.41012  -0.38337
 Alpha virt. eigenvalues --   -0.04360   0.13470   0.20483   0.23626   0.26418
 Alpha virt. eigenvalues --    0.41646   0.47534   0.58976   0.60834   0.67640
 Alpha virt. eigenvalues --    0.67749   0.75944   0.76982   0.86368   0.93095
 Alpha virt. eigenvalues --    0.94929   0.96510   1.03895   1.07060   1.10355
 Alpha virt. eigenvalues --    1.12239   1.21491   1.24061   1.39776   1.40534
 Alpha virt. eigenvalues --    1.51334   1.64593   1.68713   1.78781   1.84351
 Alpha virt. eigenvalues --    1.86478   1.95880   1.96503   2.09017   2.13789
 Alpha virt. eigenvalues --    2.17290   2.33551   2.42481   2.49982   2.57723
 Alpha virt. eigenvalues --    2.74051   2.76724   2.93863   2.99735   3.21674
 Alpha virt. eigenvalues --    3.72554   4.10238   4.13900   4.45147
          Condensed to atoms (all electrons):
               1          2          3          4          5          6
     1  C    4.870541   0.214019  -0.086135   0.360612   0.527967  -0.061887
     2  C    0.214019   4.897977   0.355069  -0.083211  -0.075617   0.517584
     3  H   -0.086135   0.355069   0.612411   0.008341   0.004220  -0.051871
     4  H    0.360612  -0.083211   0.008341   0.585669  -0.044790   0.002388
     5  O    0.527967  -0.075617   0.004220  -0.044790   7.917135  -0.001695
     6  O   -0.061887   0.517584  -0.051871   0.002388  -0.001695   7.946281
 Mulliken charges:
               1
     1  C    0.174883
     2  C    0.174180
     3  H    0.157965
     4  H    0.170991
     5  O   -0.327220
     6  O   -0.350800
 Sum of Mulliken charges =  -0.00000
 Mulliken charges with hydrogens summed into heavy atoms:
               1
     1  C    0.345874
     2  C    0.332145
     5  O   -0.327220
     6  O   -0.350800
 Electronic spatial extent (au):  <R**2>=            229.5135
 Charge=             -0.0000 electrons
 Dipole moment (field-independent basis, Debye):
    X=              0.4315    Y=              3.7347    Z=             -0.0051  Tot=              3.7596
 Quadrupole moment (field-independent basis, Debye-Ang):
   XX=            -25.5748   YY=            -21.1268   ZZ=            -20.9159
   XY=              0.3157   XZ=             -0.0282   YZ=              0.0076
 Traceless Quadrupole moment (field-independent basis, Debye-Ang):
   XX=             -3.0357   YY=              1.4124   ZZ=              1.6233
   XY=              0.3157   XZ=             -0.0282   YZ=              0.0076
 Octapole moment (field-independent basis, Debye-Ang**2):
  XXX=              1.3115  YYY=             -0.2716  ZZZ=              0.0081  XYY=              0.1302
  XXY=              4.4759  XXZ=             -0.0124  XZZ=              0.0989  YZZ=             -1.3410
  YYZ=              0.0387  XYZ=             -0.0085
 Hexadecapole moment (field-independent basis, Debye-Ang**3):
 XXXX=           -188.7388 YYYY=            -69.1811 ZZZZ=            -16.7629 XXXY=              1.1122
 XXXZ=             -0.0176 YYYX=              0.2526 YYYZ=              0.0366 ZZZX=              0.0259
 ZZZY=             -0.0161 XXYY=            -39.0125 XXZZ=            -31.3356 YYZZ=            -14.6257
 XXYZ=              0.0465 YYXZ=             -0.0499 ZZXY=              0.0261
 N-N= 1.046938281749D+02 E-N=-7.434161927331D+02  KE= 2.258168903634D+02
 1\1\GINC-NODE91\SP\RwB97X\6-31G(d)\C2H2O2\YANZ\05-Jun-2019\0\\# 6-31g(
 d) wb97x\\tmpdir/M2_ref_193.gjf\\0,1\C,0,4.694978,1.860366,13.479253\C
 ,0,5.757091,2.720608,13.767767\H,0,6.470246,2.471497,14.553239\H,0,4.5
 5922693,0.93027383,14.00034958\O,0,3.89578869,2.21015861,12.61205671\O
 ,0,5.95631587,3.83466229,13.18067415\\Version=ES64L-G16RevA.03\State=1
 -A\HF=-227.7320469\RMSD=9.966e-10\Dipole=0.3670879,-1.035738,0.9901204
 \Quadrupole=-0.9445203,0.0015513,0.942969,-1.5320305,-0.6861691,-0.416
 4596\PG=C01 [X(C2H2O2)]\\@


 A great many people think they are thinking when they
 are merely rearranging their prejudices.
                               -- William James
 Job cpu time:       0 days  0 hours  0 minutes 15.2 seconds.
 Elapsed time:       0 days  0 hours  0 minutes  7.7 seconds.
 File lengths (MBytes):  RWF=      6 Int=      0 D2E=      0 Chk=      1 Scr=      1
 Normal termination of Gaussian 16 at Wed Jun  5 16:59:00 2019.
