 Entering Gaussian System, Link 0=g16
 Initial command:
 /share/apps/gaussian/g16/l1.exe "/tmp/55477.mgr/Gau-318352.inp" -scrdir="/tmp/55477.mgr/"
 Entering Link 1 = /share/apps/gaussian/g16/l1.exe PID=    318353.
  
 Copyright (c) 1988,1990,1992,1993,1995,1998,2003,2009,2016,
            Gaussian, Inc.  All Rights Reserved.
  
 This is part of the Gaussian(R) 16 program.  It is based on
 the Gaussian(R) 09 system (copyright 2009, Gaussian, Inc.),
 the Gaussian(R) 03 system (copyright 2003, Gaussian, Inc.),
 the Gaussian(R) 98 system (copyright 1998, Gaussian, Inc.),
 the Gaussian(R) 94 system (copyright 1995, Gaussian, Inc.),
 the Gaussian 92(TM) system (copyright 1992, Gaussian, Inc.),
 the Gaussian 90(TM) system (copyright 1990, Gaussian, Inc.),
 the Gaussian 88(TM) system (copyright 1988, Gaussian, Inc.),
 the Gaussian 86(TM) system (copyright 1986, Carnegie Mellon
 University), and the Gaussian 82(TM) system (copyright 1983,
 Carnegie Mellon University). Gaussian is a federally registered
 trademark of Gaussian, Inc.
  
 This software contains proprietary and confidential information,
 including trade secrets, belonging to Gaussian, Inc.
  
 This software is provided under written license and may be
 used, copied, transmitted, or stored only in accord with that
 written license.
  
 The following legend is applicable only to US Government
 contracts under FAR:
  
                    RESTRICTED RIGHTS LEGEND
  
 Use, reproduction and disclosure by the US Government is
 subject to restrictions as set forth in subparagraphs (a)
 and (c) of the Commercial Computer Software - Restricted
 Rights clause in FAR 52.227-19.
  
 Gaussian, Inc.
 340 Quinnipiac St., Bldg. 40, Wallingford CT 06492
  
  
 ---------------------------------------------------------------
 Warning -- This program may not be used in any manner that
 competes with the business of Gaussian, Inc. or will provide
 assistance to any competitor of Gaussian, Inc.  The licensee
 of this program is prohibited from giving any competitor of
 Gaussian, Inc. access to this program.  By using this program,
 the user acknowledges that Gaussian, Inc. is engaged in the
 business of creating and licensing software in the field of
 computational chemistry and represents and warrants to the
 licensee that it is not a competitor of Gaussian, Inc. and that
 it will not use this program in any manner prohibited above.
 ---------------------------------------------------------------
  

 Cite this work as:
 Gaussian 16, Revision A.03,
 M. J. Frisch, G. W. Trucks, H. B. Schlegel, G. E. Scuseria, 
 M. A. Robb, J. R. Cheeseman, G. Scalmani, V. Barone, 
 G. A. Petersson, H. Nakatsuji, X. Li, M. Caricato, A. V. Marenich, 
 J. Bloino, B. G. Janesko, R. Gomperts, B. Mennucci, H. P. Hratchian, 
 J. V. Ortiz, A. F. Izmaylov, J. L. Sonnenberg, D. Williams-Young, 
 F. Ding, F. Lipparini, F. Egidi, J. Goings, B. Peng, A. Petrone, 
 T. Henderson, D. Ranasinghe, V. G. Zakrzewski, J. Gao, N. Rega, 
 G. Zheng, W. Liang, M. Hada, M. Ehara, K. Toyota, R. Fukuda, 
 J. Hasegawa, M. Ishida, T. Nakajima, Y. Honda, O. Kitao, H. Nakai, 
 T. Vreven, K. Throssell, J. A. Montgomery, Jr., J. E. Peralta, 
 F. Ogliaro, M. J. Bearpark, J. J. Heyd, E. N. Brothers, K. N. Kudin, 
 V. N. Staroverov, T. A. Keith, R. Kobayashi, J. Normand, 
 K. Raghavachari, A. P. Rendell, J. C. Burant, S. S. Iyengar, 
 J. Tomasi, M. Cossi, J. M. Millam, M. Klene, C. Adamo, R. Cammi, 
 J. W. Ochterski, R. L. Martin, K. Morokuma, O. Farkas, 
 J. B. Foresman, and D. J. Fox, Gaussian, Inc., Wallingford CT, 2016.
 
 ******************************************
 Gaussian 16:  ES64L-G16RevA.03 25-Dec-2016
                 5-Jun-2019 
 ******************************************
 %nprocshared=2
 Will use up to    2 processors via shared memory.
 %mem=2GB
 ----------------
 # 6-31g(d) wb97x
 ----------------
 1/38=1,172=1/1;
 2/12=2,17=6,18=5,40=1/2;
 3/5=1,6=6,7=1,11=2,25=1,30=1,74=-57/1,2,3;
 4//1;
 5/5=2,38=5/2;
 6/7=2,8=2,9=2,10=2,28=1/1;
 99/5=1,9=1/99;
 --------------------
 tmpdir/M2_ref_95.gjf
 --------------------
 Symbolic Z-matrix:
 Charge =  0 Multiplicity = 1
 C                    -0.87166   3.18958   10.82761 
 C                    -0.268     2.01851   11.5502 
 O                     0.91103   1.73044   11.41043 
 H                    -1.67672   3.70009   11.16524 
 O                    -0.33007   3.54901   9.78431 
 H                    -0.95304   1.46668   12.17093 
 
                          Input orientation:                          
 ---------------------------------------------------------------------
 Center     Atomic      Atomic             Coordinates (Angstroms)
 Number     Number       Type             X           Y           Z
 ---------------------------------------------------------------------
      1          6           0       -0.871664    3.189582   10.827610
      2          6           0       -0.268001    2.018513   11.550203
      3          8           0        0.911032    1.730440   11.410427
      4          1           0       -1.676724    3.700089   11.165241
      5          8           0       -0.330067    3.549009    9.784306
      6          1           0       -0.953043    1.466676   12.170935
 ---------------------------------------------------------------------
                    Distance matrix (angstroms):
                    1          2          3          4          5
     1  C    0.000000
     2  C    1.502648   0.000000
     3  O    2.376295   1.221737   0.000000
     4  H    1.011303   2.227194   3.261306   0.000000
     5  O    1.229227   2.337662   2.737114   1.934759   0.000000
     6  H    2.186218   1.076622   2.030448   2.554069   3.228035
                    6
     6  H    0.000000
 Stoichiometry    C2H2O2
 Framework group  C1[X(C2H2O2)]
 Deg. of freedom    12
 Full point group                 C1      NOp   1
 Largest Abelian subgroup         C1      NOp   1
 Largest concise Abelian subgroup C1      NOp   1
                         Standard orientation:                         
 ---------------------------------------------------------------------
 Center     Atomic      Atomic             Coordinates (Angstroms)
 Number     Number       Type             X           Y           Z
 ---------------------------------------------------------------------
      1          6           0       -0.756324    0.504157   -0.088621
      2          6           0        0.736508    0.491866    0.082416
      3          8           0        1.380977   -0.534342   -0.073142
      4          1           0       -1.282258    1.327641   -0.349394
      5          8           0       -1.351938   -0.558380    0.076472
      6          1           0        1.168838    1.437995    0.359988
 ---------------------------------------------------------------------
 Rotational constants (GHZ):          25.4765431           6.5843930           5.2978042
 Standard basis: 6-31G(d) (6D, 7F)
 There are    64 symmetry adapted cartesian basis functions of A   symmetry.
 There are    64 symmetry adapted basis functions of A   symmetry.
    64 basis functions,   120 primitive gaussians,    64 cartesian basis functions
    15 alpha electrons       15 beta electrons
       nuclear repulsion energy       104.1167696212 Hartrees.
 NAtoms=    6 NActive=    6 NUniq=    6 SFac= 1.00D+00 NAtFMM=   60 NAOKFM=F Big=F
 Integral buffers will be    131072 words long.
 Raffenetti 2 integral format.
 Two-electron integral symmetry is turned on.
 One-electron integrals computed using PRISM.
 NBasis=    64 RedAO= T EigKep=  3.75D-03  NBF=    64
 NBsUse=    64 1.00D-06 EigRej= -1.00D+00 NBFU=    64
 ExpMin= 1.61D-01 ExpMax= 5.48D+03 ExpMxC= 8.25D+02 IAcc=3 IRadAn=         5 AccDes= 0.00D+00
 Harris functional with IExCor= 4538 and IRadAn=       5 diagonalized for initial guess.
 HarFok:  IExCor= 4538 AccDes= 0.00D+00 IRadAn=         5 IDoV= 1 UseB2=F ITyADJ=14
 ICtDFT=  3500011 ScaDFX=  1.000000  1.000000  1.000000  1.000000
 FoFCou: FMM=F IPFlag=           0 FMFlag=      100000 FMFlg1=           0
         NFxFlg=           0 DoJE=T BraDBF=F KetDBF=T FulRan=T
         wScrn=  0.000000 ICntrl=       500 IOpCl=  0 I1Cent=   200000004 NGrid=           0
         NMat0=    1 NMatS0=      1 NMatT0=    0 NMatD0=    1 NMtDS0=    0 NMtDT0=    0
 Petite list used in FoFCou.
 Keep R1 ints in memory in canonical form, NReq=6104720.
 Requested convergence on RMS density matrix=1.00D-08 within 128 cycles.
 Requested convergence on MAX density matrix=1.00D-06.
 Requested convergence on             energy=1.00D-06.
 No special actions if energy rises.
 Integral accuracy reduced to 1.0D-05 until final iterations.
 Initial convergence to 1.0D-05 achieved.  Increase integral accuracy.
 SCF Done:  E(RwB97X) =  -227.740803313     A.U. after   16 cycles
            NFock= 16  Conv=0.79D-08     -V/T= 2.0082

 **********************************************************************

            Population analysis using the SCF density.

 **********************************************************************

 Orbital symmetries:
       Occupied  (A) (A) (A) (A) (A) (A) (A) (A) (A) (A) (A) (A)
                 (A) (A) (A)
       Virtual   (A) (A) (A) (A) (A) (A) (A) (A) (A) (A) (A) (A)
                 (A) (A) (A) (A) (A) (A) (A) (A) (A) (A) (A) (A)
                 (A) (A) (A) (A) (A) (A) (A) (A) (A) (A) (A) (A)
                 (A) (A) (A) (A) (A) (A) (A) (A) (A) (A) (A) (A)
                 (A)
 The electronic state is 1-A.
 Alpha  occ. eigenvalues --  -19.25441 -19.24998 -10.38713 -10.37832  -1.20898
 Alpha  occ. eigenvalues --   -1.17730  -0.85437  -0.71411  -0.65934  -0.57694
 Alpha  occ. eigenvalues --   -0.56638  -0.54051  -0.48604  -0.42005  -0.36890
 Alpha virt. eigenvalues --   -0.01787   0.11281   0.22104   0.23722   0.28873
 Alpha virt. eigenvalues --    0.39215   0.42808   0.60140   0.63730   0.66993
 Alpha virt. eigenvalues --    0.72497   0.75885   0.76956   0.84417   0.94329
 Alpha virt. eigenvalues --    0.94591   0.98951   1.03347   1.05421   1.07974
 Alpha virt. eigenvalues --    1.12740   1.15182   1.21696   1.45301   1.47875
 Alpha virt. eigenvalues --    1.55959   1.62933   1.64813   1.74945   1.81807
 Alpha virt. eigenvalues --    1.88514   1.94969   1.98385   2.09892   2.14021
 Alpha virt. eigenvalues --    2.17488   2.29816   2.38011   2.57791   2.61518
 Alpha virt. eigenvalues --    2.70463   2.72813   2.98635   3.00983   3.15188
 Alpha virt. eigenvalues --    3.76142   4.02225   4.11254   4.44224
          Condensed to atoms (all electrons):
               1          2          3          4          5          6
     1  C    4.852360   0.255694  -0.065532   0.350951   0.529291  -0.088844
     2  C    0.255694   4.822988   0.550276  -0.077693  -0.070145   0.334962
     3  O   -0.065532   0.550276   7.891628   0.002809   0.001747  -0.045921
     4  H    0.350951  -0.077693   0.002809   0.589582  -0.047055   0.010488
     5  O    0.529291  -0.070145   0.001747  -0.047055   7.919362   0.003946
     6  H   -0.088844   0.334962  -0.045921   0.010488   0.003946   0.634136
 Mulliken charges:
               1
     1  C    0.166081
     2  C    0.183918
     3  O   -0.335006
     4  H    0.170919
     5  O   -0.337145
     6  H    0.151233
 Sum of Mulliken charges =  -0.00000
 Mulliken charges with hydrogens summed into heavy atoms:
               1
     1  C    0.337000
     2  C    0.335151
     3  O   -0.335006
     5  O   -0.337145
 Electronic spatial extent (au):  <R**2>=            234.4337
 Charge=             -0.0000 electrons
 Dipole moment (field-independent basis, Debye):
    X=             -0.1605    Y=              3.7466    Z=             -0.0444  Tot=              3.7503
 Quadrupole moment (field-independent basis, Debye-Ang):
   XX=            -25.6956   YY=            -21.0263   ZZ=            -20.7993
   XY=             -0.3177   XZ=              0.7278   YZ=             -0.0226
 Traceless Quadrupole moment (field-independent basis, Debye-Ang):
   XX=             -3.1885   YY=              1.4808   ZZ=              1.7077
   XY=             -0.3177   XZ=              0.7278   YZ=             -0.0226
 Octapole moment (field-independent basis, Debye-Ang**2):
  XXX=             -0.8724  YYY=             -0.2889  ZZZ=             -0.0898  XYY=             -0.1986
  XXY=              4.6046  XXZ=             -0.2278  XZZ=             -0.0949  YZZ=             -0.9408
  YYZ=             -0.0345  XYZ=              0.2071
 Hexadecapole moment (field-independent basis, Debye-Ang**3):
 XXXX=           -196.5674 YYYY=            -65.5952 ZZZZ=            -18.5451 XXXY=             -1.4546
 XXXZ=              0.2985 YYYX=             -0.5275 YYYZ=             -0.0306 ZZZX=             -0.6394
 ZZZY=             -0.1485 XXYY=            -40.2279 XXZZ=            -32.4783 YYZZ=            -14.0803
 XXYZ=             -0.1982 YYXZ=              0.8772 ZZXY=             -0.1670
 N-N= 1.041167696212D+02 E-N=-7.423538361181D+02  KE= 2.258923997566D+02
 1\1\GINC-NODE91\SP\RwB97X\6-31G(d)\C2H2O2\YANZ\05-Jun-2019\0\\# 6-31g(
 d) wb97x\\tmpdir/M2_ref_95.gjf\\0,1\C,0,-0.871664,3.189582,10.82761\C,
 0,-0.268001,2.018513,11.550203\O,0,0.911032,1.73044,11.410427\H,0,-1.6
 767244,3.70008885,11.16524056\O,0,-0.33006701,3.54900891,9.78430563\H,
 0,-0.95304338,1.4666759,12.17093475\\Version=ES64L-G16RevA.03\State=1-
 A\HF=-227.7408033\RMSD=7.869e-09\Dipole=-1.2228327,-0.0225741,0.825335
 1\Quadrupole=0.4306004,-0.0133072,-0.4172932,0.955897,-1.027751,1.5559
 102\PG=C01 [X(C2H2O2)]\\@


 HO!  SUCH BUGS AND GOBLINS IN MY LIFE!

                            -- HAMLET, ACT 5, SCENE 2
 Job cpu time:       0 days  0 hours  0 minutes 15.4 seconds.
 Elapsed time:       0 days  0 hours  0 minutes  7.8 seconds.
 File lengths (MBytes):  RWF=      6 Int=      0 D2E=      0 Chk=      1 Scr=      1
 Normal termination of Gaussian 16 at Wed Jun  5 16:57:40 2019.
