 Entering Gaussian System, Link 0=g16
 Initial command:
 /share/apps/gaussian/g16/l1.exe "/tmp/55477.mgr/Gau-319347.inp" -scrdir="/tmp/55477.mgr/"
 Entering Link 1 = /share/apps/gaussian/g16/l1.exe PID=    319348.
  
 Copyright (c) 1988,1990,1992,1993,1995,1998,2003,2009,2016,
            Gaussian, Inc.  All Rights Reserved.
  
 This is part of the Gaussian(R) 16 program.  It is based on
 the Gaussian(R) 09 system (copyright 2009, Gaussian, Inc.),
 the Gaussian(R) 03 system (copyright 2003, Gaussian, Inc.),
 the Gaussian(R) 98 system (copyright 1998, Gaussian, Inc.),
 the Gaussian(R) 94 system (copyright 1995, Gaussian, Inc.),
 the Gaussian 92(TM) system (copyright 1992, Gaussian, Inc.),
 the Gaussian 90(TM) system (copyright 1990, Gaussian, Inc.),
 the Gaussian 88(TM) system (copyright 1988, Gaussian, Inc.),
 the Gaussian 86(TM) system (copyright 1986, Carnegie Mellon
 University), and the Gaussian 82(TM) system (copyright 1983,
 Carnegie Mellon University). Gaussian is a federally registered
 trademark of Gaussian, Inc.
  
 This software contains proprietary and confidential information,
 including trade secrets, belonging to Gaussian, Inc.
  
 This software is provided under written license and may be
 used, copied, transmitted, or stored only in accord with that
 written license.
  
 The following legend is applicable only to US Government
 contracts under FAR:
  
                    RESTRICTED RIGHTS LEGEND
  
 Use, reproduction and disclosure by the US Government is
 subject to restrictions as set forth in subparagraphs (a)
 and (c) of the Commercial Computer Software - Restricted
 Rights clause in FAR 52.227-19.
  
 Gaussian, Inc.
 340 Quinnipiac St., Bldg. 40, Wallingford CT 06492
  
  
 ---------------------------------------------------------------
 Warning -- This program may not be used in any manner that
 competes with the business of Gaussian, Inc. or will provide
 assistance to any competitor of Gaussian, Inc.  The licensee
 of this program is prohibited from giving any competitor of
 Gaussian, Inc. access to this program.  By using this program,
 the user acknowledges that Gaussian, Inc. is engaged in the
 business of creating and licensing software in the field of
 computational chemistry and represents and warrants to the
 licensee that it is not a competitor of Gaussian, Inc. and that
 it will not use this program in any manner prohibited above.
 ---------------------------------------------------------------
  

 Cite this work as:
 Gaussian 16, Revision A.03,
 M. J. Frisch, G. W. Trucks, H. B. Schlegel, G. E. Scuseria, 
 M. A. Robb, J. R. Cheeseman, G. Scalmani, V. Barone, 
 G. A. Petersson, H. Nakatsuji, X. Li, M. Caricato, A. V. Marenich, 
 J. Bloino, B. G. Janesko, R. Gomperts, B. Mennucci, H. P. Hratchian, 
 J. V. Ortiz, A. F. Izmaylov, J. L. Sonnenberg, D. Williams-Young, 
 F. Ding, F. Lipparini, F. Egidi, J. Goings, B. Peng, A. Petrone, 
 T. Henderson, D. Ranasinghe, V. G. Zakrzewski, J. Gao, N. Rega, 
 G. Zheng, W. Liang, M. Hada, M. Ehara, K. Toyota, R. Fukuda, 
 J. Hasegawa, M. Ishida, T. Nakajima, Y. Honda, O. Kitao, H. Nakai, 
 T. Vreven, K. Throssell, J. A. Montgomery, Jr., J. E. Peralta, 
 F. Ogliaro, M. J. Bearpark, J. J. Heyd, E. N. Brothers, K. N. Kudin, 
 V. N. Staroverov, T. A. Keith, R. Kobayashi, J. Normand, 
 K. Raghavachari, A. P. Rendell, J. C. Burant, S. S. Iyengar, 
 J. Tomasi, M. Cossi, J. M. Millam, M. Klene, C. Adamo, R. Cammi, 
 J. W. Ochterski, R. L. Martin, K. Morokuma, O. Farkas, 
 J. B. Foresman, and D. J. Fox, Gaussian, Inc., Wallingford CT, 2016.
 
 ******************************************
 Gaussian 16:  ES64L-G16RevA.03 25-Dec-2016
                 5-Jun-2019 
 ******************************************
 %nprocshared=2
 Will use up to    2 processors via shared memory.
 %mem=2GB
 ----------------
 # 6-31g(d) wb97x
 ----------------
 1/38=1,172=1/1;
 2/12=2,17=6,18=5,40=1/2;
 3/5=1,6=6,7=1,11=2,25=1,30=1,74=-57/1,2,3;
 4//1;
 5/5=2,38=5/2;
 6/7=2,8=2,9=2,10=2,28=1/1;
 99/5=1,9=1/99;
 ---------------------
 tmpdir/M2_ref_165.gjf
 ---------------------
 Symbolic Z-matrix:
 Charge =  0 Multiplicity = 1
 C                     4.50745   0.57551   14.19911 
 C                     4.69498   1.86037   13.47925 
 H                     3.52932   0.18462   14.20669 
 C                     5.55769  -0.09244   14.82461 
 C                     3.78847   2.25713   12.49561 
 H                     5.46383   2.48308   13.6881 
 
                          Input orientation:                          
 ---------------------------------------------------------------------
 Center     Atomic      Atomic             Coordinates (Angstroms)
 Number     Number       Type             X           Y           Z
 ---------------------------------------------------------------------
      1          6           0        4.507447    0.575506   14.199113
      2          6           0        4.694978    1.860366   13.479253
      3          1           0        3.529323    0.184624   14.206695
      4          6           0        5.557686   -0.092444   14.824609
      5          6           0        3.788473    2.257129   12.495609
      6          1           0        5.463827    2.483083   13.688104
 ---------------------------------------------------------------------
                    Distance matrix (angstroms):
                    1          2          3          4          5
     1  C    0.000000
     2  C    1.484665   0.000000
     3  H    1.053362   2.167033   0.000000
     4  C    1.392984   2.523433   2.138420   0.000000
     5  C    2.499341   1.395252   2.700046   3.751646   0.000000
     6  H    2.194229   1.011199   3.048631   2.816699   2.068794
                    6
     6  H    0.000000
 Stoichiometry    C4H2
 Framework group  C1[X(C4H2)]
 Deg. of freedom    12
 Full point group                 C1      NOp   1
 Largest Abelian subgroup         C1      NOp   1
 Largest concise Abelian subgroup C1      NOp   1
                         Standard orientation:                         
 ---------------------------------------------------------------------
 Center     Atomic      Atomic             Coordinates (Angstroms)
 Number     Number       Type             X           Y           Z
 ---------------------------------------------------------------------
      1          6           0       -0.628027    0.381488    0.096976
      2          6           0        0.629610   -0.407529    0.091332
      3          1           0       -0.529218    1.413571    0.283025
      4          6           0       -1.874202   -0.194371   -0.139327
      5          6           0        1.854638    0.218666   -0.140863
      6          1           0        0.637100   -1.403100    0.268263
 ---------------------------------------------------------------------
 Rotational constants (GHZ):          52.8395221           5.3495510           4.9366295
 Standard basis: 6-31G(d) (6D, 7F)
 There are    64 symmetry adapted cartesian basis functions of A   symmetry.
 There are    64 symmetry adapted basis functions of A   symmetry.
    64 basis functions,   120 primitive gaussians,    64 cartesian basis functions
    13 alpha electrons       13 beta electrons
       nuclear repulsion energy        74.9730591388 Hartrees.
 NAtoms=    6 NActive=    6 NUniq=    6 SFac= 1.00D+00 NAtFMM=   60 NAOKFM=F Big=F
 Integral buffers will be    131072 words long.
 Raffenetti 2 integral format.
 Two-electron integral symmetry is turned on.
 One-electron integrals computed using PRISM.
 NBasis=    64 RedAO= T EigKep=  5.81D-03  NBF=    64
 NBsUse=    64 1.00D-06 EigRej= -1.00D+00 NBFU=    64
 ExpMin= 1.61D-01 ExpMax= 3.05D+03 ExpMxC= 4.57D+02 IAcc=3 IRadAn=         5 AccDes= 0.00D+00
 Harris functional with IExCor= 4538 and IRadAn=       5 diagonalized for initial guess.
 HarFok:  IExCor= 4538 AccDes= 0.00D+00 IRadAn=         5 IDoV= 1 UseB2=F ITyADJ=14
 ICtDFT=  3500011 ScaDFX=  1.000000  1.000000  1.000000  1.000000
 FoFCou: FMM=F IPFlag=           0 FMFlag=      100000 FMFlg1=           0
         NFxFlg=           0 DoJE=T BraDBF=F KetDBF=T FulRan=T
         wScrn=  0.000000 ICntrl=       500 IOpCl=  0 I1Cent=   200000004 NGrid=           0
         NMat0=    1 NMatS0=      1 NMatT0=    0 NMatD0=    1 NMtDS0=    0 NMtDT0=    0
 Petite list used in FoFCou.
 Keep R1 ints in memory in canonical form, NReq=6104720.
 Requested convergence on RMS density matrix=1.00D-08 within 128 cycles.
 Requested convergence on MAX density matrix=1.00D-06.
 Requested convergence on             energy=1.00D-06.
 No special actions if energy rises.
 Integral accuracy reduced to 1.0D-05 until final iterations.
 Initial convergence to 1.0D-05 achieved.  Increase integral accuracy.
 SCF Done:  E(RwB97X) =  -153.250090290     A.U. after   18 cycles
            NFock= 18  Conv=0.21D-08     -V/T= 2.0102

 **********************************************************************

            Population analysis using the SCF density.

 **********************************************************************

 Orbital symmetries:
       Occupied  (A) (A) (A) (A) (A) (A) (A) (A) (A) (A) (A) (A)
                 (A)
       Virtual   (A) (A) (A) (A) (A) (A) (A) (A) (A) (A) (A) (A)
                 (A) (A) (A) (A) (A) (A) (A) (A) (A) (A) (A) (A)
                 (A) (A) (A) (A) (A) (A) (A) (A) (A) (A) (A) (A)
                 (A) (A) (A) (A) (A) (A) (A) (A) (A) (A) (A) (A)
                 (A) (A) (A)
 The electronic state is 1-A.
 Alpha  occ. eigenvalues --  -10.36807 -10.36784 -10.31840 -10.31475  -0.96490
 Alpha  occ. eigenvalues --   -0.86272  -0.68580  -0.67097  -0.56841  -0.45321
 Alpha  occ. eigenvalues --   -0.43114  -0.40418  -0.34648
 Alpha virt. eigenvalues --   -0.02971  -0.00741   0.04091   0.13660   0.22803
 Alpha virt. eigenvalues --    0.26387   0.35429   0.40370   0.43338   0.59619
 Alpha virt. eigenvalues --    0.61188   0.63061   0.66095   0.67044   0.68277
 Alpha virt. eigenvalues --    0.70348   0.72474   0.74564   0.75262   0.78368
 Alpha virt. eigenvalues --    0.79079   0.97169   1.00661   1.03392   1.07597
 Alpha virt. eigenvalues --    1.14592   1.21161   1.47607   1.51541   1.61291
 Alpha virt. eigenvalues --    1.76805   1.76976   1.81732   1.83099   1.85408
 Alpha virt. eigenvalues --    1.94847   2.03007   2.05400   2.18365   2.19633
 Alpha virt. eigenvalues --    2.33117   2.41037   2.51254   2.58037   2.72347
 Alpha virt. eigenvalues --    2.84919   2.96529   4.06435   4.09735   4.25082
 Alpha virt. eigenvalues --    4.49175
          Condensed to atoms (all electrons):
               1          2          3          4          5          6
     1  C    5.143417   0.330325   0.357878   0.486146  -0.015890  -0.023237
     2  C    0.330325   5.128337  -0.027761  -0.015107   0.485824   0.363478
     3  H    0.357878  -0.027761   0.447635  -0.013590  -0.002786   0.003199
     4  C    0.486146  -0.015107  -0.013590   5.506532  -0.000428  -0.002978
     5  C   -0.015890   0.485824  -0.002786  -0.000428   5.514694  -0.016667
     6  H   -0.023237   0.363478   0.003199  -0.002978  -0.016667   0.442576
 Mulliken charges:
               1
     1  C   -0.278639
     2  C   -0.265096
     3  H    0.235426
     4  C    0.039426
     5  C    0.035254
     6  H    0.233630
 Sum of Mulliken charges =  -0.00000
 Mulliken charges with hydrogens summed into heavy atoms:
               1
     1  C   -0.043213
     2  C   -0.031466
     4  C    0.039426
     5  C    0.035254
 Electronic spatial extent (au):  <R**2>=            249.8014
 Charge=              0.0000 electrons
 Dipole moment (field-independent basis, Debye):
    X=              0.0994    Y=             -0.0318    Z=              0.6406  Tot=              0.6491
 Quadrupole moment (field-independent basis, Debye-Ang):
   XX=            -31.8088   YY=            -19.4199   ZZ=            -25.4424
   XY=             -4.0544   XZ=              0.0346   YZ=              0.0358
 Traceless Quadrupole moment (field-independent basis, Debye-Ang):
   XX=             -6.2517   YY=              6.1371   ZZ=              0.1146
   XY=             -4.0544   XZ=              0.0346   YZ=              0.0358
 Octapole moment (field-independent basis, Debye-Ang**2):
  XXX=              0.8454  YYY=             -0.1265  ZZZ=              1.1251  XYY=              0.0863
  XXY=             -0.5203  XXZ=              3.1012  XZZ=              0.0750  YZZ=             -0.0687
  YYZ=              1.3240  XYZ=             -0.2688
 Hexadecapole moment (field-independent basis, Debye-Ang**3):
 XXXX=           -366.6802 YYYY=            -41.6317 ZZZZ=            -30.1053 XXXY=            -30.4666
 XXXZ=             -0.0192 YYYX=             -6.6828 YYYZ=              0.0801 ZZZX=              0.0743
 ZZZY=              0.0003 XXYY=            -57.2230 XXZZ=            -59.8919 YYZZ=            -13.1833
 XXYZ=              0.0425 YYXZ=              0.1113 ZZXY=             -1.5117
 N-N= 7.497305913880D+01 E-N=-5.044189012389D+02  KE= 1.517070568297D+02
 1\1\GINC-NODE91\SP\RwB97X\6-31G(d)\C4H2\YANZ\05-Jun-2019\0\\# 6-31g(d)
  wb97x\\tmpdir/M2_ref_165.gjf\\0,1\C,0,4.507447,0.575506,14.199113\C,0
 ,4.694978,1.860366,13.479253\H,0,3.52932312,0.1846243,14.20669486\C,0,
 5.557686,-0.092444,14.824609\C,0,3.788473,2.257129,12.495609\H,0,5.463
 82673,2.48308314,13.68810425\\Version=ES64L-G16RevA.03\State=1-A\HF=-1
 53.2500903\RMSD=2.131e-09\Dipole=-0.1001668,0.1572503,0.1744956\Quadru
 pole=0.6642889,1.3277181,-1.992007,4.3769385,-2.4978242,1.3490536\PG=C
 01 [X(C4H2)]\\@


 THE TRULY SUCCESSFUL PERFORMANCE OF RESEARCHES IN
 INORGANIC CHEMISTRY IS POSSIBLE ONLY TO ONE WHO IS NOT
 ONLY A THEORETICAL CHEMIST, BUT ALSO AN ACCOMPLISHED
 ANALYST AND, MOREOVER, NOT MERELY A PRACTICALLY TRAINED,
 MECHANICAL WORKER, BUT A THINKING CREATIVE ARTIST.
   --  CLEMENS WINKLER, BER. 33, 1697(1900)
 Job cpu time:       0 days  0 hours  0 minutes 17.5 seconds.
 Elapsed time:       0 days  0 hours  0 minutes  8.9 seconds.
 File lengths (MBytes):  RWF=      6 Int=      0 D2E=      0 Chk=      1 Scr=      1
 Normal termination of Gaussian 16 at Wed Jun  5 16:58:23 2019.
