 Entering Gaussian System, Link 0=g16
 Initial command:
 /share/apps/gaussian/g16/l1.exe "/tmp/55477.mgr/Gau-319474.inp" -scrdir="/tmp/55477.mgr/"
 Entering Link 1 = /share/apps/gaussian/g16/l1.exe PID=    319475.
  
 Copyright (c) 1988,1990,1992,1993,1995,1998,2003,2009,2016,
            Gaussian, Inc.  All Rights Reserved.
  
 This is part of the Gaussian(R) 16 program.  It is based on
 the Gaussian(R) 09 system (copyright 2009, Gaussian, Inc.),
 the Gaussian(R) 03 system (copyright 2003, Gaussian, Inc.),
 the Gaussian(R) 98 system (copyright 1998, Gaussian, Inc.),
 the Gaussian(R) 94 system (copyright 1995, Gaussian, Inc.),
 the Gaussian 92(TM) system (copyright 1992, Gaussian, Inc.),
 the Gaussian 90(TM) system (copyright 1990, Gaussian, Inc.),
 the Gaussian 88(TM) system (copyright 1988, Gaussian, Inc.),
 the Gaussian 86(TM) system (copyright 1986, Carnegie Mellon
 University), and the Gaussian 82(TM) system (copyright 1983,
 Carnegie Mellon University). Gaussian is a federally registered
 trademark of Gaussian, Inc.
  
 This software contains proprietary and confidential information,
 including trade secrets, belonging to Gaussian, Inc.
  
 This software is provided under written license and may be
 used, copied, transmitted, or stored only in accord with that
 written license.
  
 The following legend is applicable only to US Government
 contracts under FAR:
  
                    RESTRICTED RIGHTS LEGEND
  
 Use, reproduction and disclosure by the US Government is
 subject to restrictions as set forth in subparagraphs (a)
 and (c) of the Commercial Computer Software - Restricted
 Rights clause in FAR 52.227-19.
  
 Gaussian, Inc.
 340 Quinnipiac St., Bldg. 40, Wallingford CT 06492
  
  
 ---------------------------------------------------------------
 Warning -- This program may not be used in any manner that
 competes with the business of Gaussian, Inc. or will provide
 assistance to any competitor of Gaussian, Inc.  The licensee
 of this program is prohibited from giving any competitor of
 Gaussian, Inc. access to this program.  By using this program,
 the user acknowledges that Gaussian, Inc. is engaged in the
 business of creating and licensing software in the field of
 computational chemistry and represents and warrants to the
 licensee that it is not a competitor of Gaussian, Inc. and that
 it will not use this program in any manner prohibited above.
 ---------------------------------------------------------------
  

 Cite this work as:
 Gaussian 16, Revision A.03,
 M. J. Frisch, G. W. Trucks, H. B. Schlegel, G. E. Scuseria, 
 M. A. Robb, J. R. Cheeseman, G. Scalmani, V. Barone, 
 G. A. Petersson, H. Nakatsuji, X. Li, M. Caricato, A. V. Marenich, 
 J. Bloino, B. G. Janesko, R. Gomperts, B. Mennucci, H. P. Hratchian, 
 J. V. Ortiz, A. F. Izmaylov, J. L. Sonnenberg, D. Williams-Young, 
 F. Ding, F. Lipparini, F. Egidi, J. Goings, B. Peng, A. Petrone, 
 T. Henderson, D. Ranasinghe, V. G. Zakrzewski, J. Gao, N. Rega, 
 G. Zheng, W. Liang, M. Hada, M. Ehara, K. Toyota, R. Fukuda, 
 J. Hasegawa, M. Ishida, T. Nakajima, Y. Honda, O. Kitao, H. Nakai, 
 T. Vreven, K. Throssell, J. A. Montgomery, Jr., J. E. Peralta, 
 F. Ogliaro, M. J. Bearpark, J. J. Heyd, E. N. Brothers, K. N. Kudin, 
 V. N. Staroverov, T. A. Keith, R. Kobayashi, J. Normand, 
 K. Raghavachari, A. P. Rendell, J. C. Burant, S. S. Iyengar, 
 J. Tomasi, M. Cossi, J. M. Millam, M. Klene, C. Adamo, R. Cammi, 
 J. W. Ochterski, R. L. Martin, K. Morokuma, O. Farkas, 
 J. B. Foresman, and D. J. Fox, Gaussian, Inc., Wallingford CT, 2016.
 
 ******************************************
 Gaussian 16:  ES64L-G16RevA.03 25-Dec-2016
                 5-Jun-2019 
 ******************************************
 %nprocshared=2
 Will use up to    2 processors via shared memory.
 %mem=2GB
 ----------------
 # 6-31g(d) wb97x
 ----------------
 1/38=1,172=1/1;
 2/12=2,17=6,18=5,40=1/2;
 3/5=1,6=6,7=1,11=2,25=1,30=1,74=-57/1,2,3;
 4//1;
 5/5=2,38=5/2;
 6/7=2,8=2,9=2,10=2,28=1/1;
 99/5=1,9=1/99;
 ---------------------
 tmpdir/M2_ref_139.gjf
 ---------------------
 Symbolic Z-matrix:
 Charge =  0 Multiplicity = 1
 C                     0.3931   -0.13857   13.59764 
 C                     0.58085  -1.27787   14.38415 
 N                     1.82945  -1.65096   14.90158 
 O                    -0.72932   0.12591   13.17114 
 H                     1.23073   0.50003   13.37037 
 O                    -0.37727  -2.02153   14.66262 
 H                     1.85535  -2.50958   15.43048 
 H                     2.70137  -1.24675   14.86383 
 
                          Input orientation:                          
 ---------------------------------------------------------------------
 Center     Atomic      Atomic             Coordinates (Angstroms)
 Number     Number       Type             X           Y           Z
 ---------------------------------------------------------------------
      1          6           0        0.393095   -0.138565   13.597645
      2          6           0        0.580851   -1.277869   14.384148
      3          7           0        1.829453   -1.650958   14.901584
      4          8           0       -0.729319    0.125907   13.171137
      5          1           0        1.230734    0.500032   13.370366
      6          8           0       -0.377274   -2.021529   14.662615
      7          1           0        1.855350   -2.509577   15.430483
      8          1           0        2.701372   -1.246754   14.863826
 ---------------------------------------------------------------------
                    Distance matrix (angstroms):
                    1          2          3          4          5
     1  C    0.000000
     2  C    1.397087   0.000000
     3  N    2.459820   1.402121   0.000000
     4  O    1.229499   2.271239   3.563567   0.000000
     5  H    1.077544   2.147332   2.707370   2.005361   0.000000
     6  O    2.296341   1.244419   2.250350   2.638167   3.257893
     7  H    3.334544   2.058220   1.008777   4.327925   3.700267
     8  H    2.856474   2.174321   0.961795   4.064362   2.728454
                    6          7          8
     6  O    0.000000
     7  H    2.410897   0.000000
     8  H    3.181010   1.622213   0.000000
 Stoichiometry    C2H3NO2
 Framework group  C1[X(C2H3NO2)]
 Deg. of freedom    18
 Full point group                 C1      NOp   1
 Largest Abelian subgroup         C1      NOp   1
 Largest concise Abelian subgroup C1      NOp   1
                         Standard orientation:                         
 ---------------------------------------------------------------------
 Center     Atomic      Atomic             Coordinates (Angstroms)
 Number     Number       Type             X           Y           Z
 ---------------------------------------------------------------------
      1          6           0       -0.832022   -0.633848   -0.000869
      2          6           0        0.373152    0.072840   -0.000642
      3          7           0        1.626551   -0.555592    0.001900
      4          8           0       -1.896260   -0.018178    0.003222
      5          1           0       -0.821726   -1.711335   -0.004926
      6          8           0        0.378939    1.317240   -0.004114
      7          1           0        2.430985    0.052286    0.033535
      8          1           0        1.896676   -1.478262   -0.025705
 ---------------------------------------------------------------------
 Rotational constants (GHZ):          12.0424269           4.3208520           3.1799876
 Standard basis: 6-31G(d) (6D, 7F)
 There are    81 symmetry adapted cartesian basis functions of A   symmetry.
 There are    81 symmetry adapted basis functions of A   symmetry.
    81 basis functions,   152 primitive gaussians,    81 cartesian basis functions
    19 alpha electrons       19 beta electrons
       nuclear repulsion energy       163.7235023823 Hartrees.
 NAtoms=    8 NActive=    8 NUniq=    8 SFac= 1.00D+00 NAtFMM=   60 NAOKFM=F Big=F
 Integral buffers will be    131072 words long.
 Raffenetti 2 integral format.
 Two-electron integral symmetry is turned on.
 One-electron integrals computed using PRISM.
 NBasis=    81 RedAO= T EigKep=  2.20D-03  NBF=    81
 NBsUse=    81 1.00D-06 EigRej= -1.00D+00 NBFU=    81
 ExpMin= 1.61D-01 ExpMax= 5.48D+03 ExpMxC= 8.25D+02 IAcc=3 IRadAn=         5 AccDes= 0.00D+00
 Harris functional with IExCor= 4538 and IRadAn=       5 diagonalized for initial guess.
 HarFok:  IExCor= 4538 AccDes= 0.00D+00 IRadAn=         5 IDoV= 1 UseB2=F ITyADJ=14
 ICtDFT=  3500011 ScaDFX=  1.000000  1.000000  1.000000  1.000000
 FoFCou: FMM=F IPFlag=           0 FMFlag=      100000 FMFlg1=           0
         NFxFlg=           0 DoJE=T BraDBF=F KetDBF=T FulRan=T
         wScrn=  0.000000 ICntrl=       500 IOpCl=  0 I1Cent=   200000004 NGrid=           0
         NMat0=    1 NMatS0=      1 NMatT0=    0 NMatD0=    1 NMtDS0=    0 NMtDT0=    0
 Petite list used in FoFCou.
 Keep R1 ints in memory in canonical form, NReq=12842125.
 Requested convergence on RMS density matrix=1.00D-08 within 128 cycles.
 Requested convergence on MAX density matrix=1.00D-06.
 Requested convergence on             energy=1.00D-06.
 No special actions if energy rises.
 Integral accuracy reduced to 1.0D-05 until final iterations.
 Initial convergence to 1.0D-05 achieved.  Increase integral accuracy.
 SCF Done:  E(RwB97X) =  -283.103835089     A.U. after   17 cycles
            NFock= 17  Conv=0.10D-07     -V/T= 2.0083

 **********************************************************************

            Population analysis using the SCF density.

 **********************************************************************

 Orbital symmetries:
       Occupied  (A) (A) (A) (A) (A) (A) (A) (A) (A) (A) (A) (A)
                 (A) (A) (A) (A) (A) (A) (A)
       Virtual   (A) (A) (A) (A) (A) (A) (A) (A) (A) (A) (A) (A)
                 (A) (A) (A) (A) (A) (A) (A) (A) (A) (A) (A) (A)
                 (A) (A) (A) (A) (A) (A) (A) (A) (A) (A) (A) (A)
                 (A) (A) (A) (A) (A) (A) (A) (A) (A) (A) (A) (A)
                 (A) (A) (A) (A) (A) (A) (A) (A) (A) (A) (A) (A)
                 (A) (A)
 The electronic state is 1-A.
 Alpha  occ. eigenvalues --  -19.24769 -19.20151 -14.44985 -10.39554 -10.38007
 Alpha  occ. eigenvalues --   -1.20209  -1.15666  -1.04281  -0.86213  -0.71325
 Alpha  occ. eigenvalues --   -0.67457  -0.63669  -0.56446  -0.56104  -0.53211
 Alpha  occ. eigenvalues --   -0.47752  -0.39384  -0.38101  -0.37344
 Alpha virt. eigenvalues --   -0.00959   0.17041   0.17911   0.22037   0.23810
 Alpha virt. eigenvalues --    0.30218   0.36426   0.44870   0.52118   0.60157
 Alpha virt. eigenvalues --    0.60352   0.71263   0.71695   0.75015   0.78229
 Alpha virt. eigenvalues --    0.80904   0.82468   0.87753   0.95104   0.95453
 Alpha virt. eigenvalues --    0.98669   1.01125   1.06172   1.07445   1.11469
 Alpha virt. eigenvalues --    1.14685   1.17662   1.28419   1.31264   1.36544
 Alpha virt. eigenvalues --    1.44279   1.47570   1.58783   1.61866   1.73512
 Alpha virt. eigenvalues --    1.79837   1.84639   1.86909   1.89003   1.95013
 Alpha virt. eigenvalues --    2.00392   2.09806   2.12041   2.14444   2.16290
 Alpha virt. eigenvalues --    2.28483   2.37885   2.50555   2.51030   2.55637
 Alpha virt. eigenvalues --    2.63937   2.71957   2.78192   2.98794   3.02936
 Alpha virt. eigenvalues --    3.17825   3.30465   3.83827   3.91928   4.18775
 Alpha virt. eigenvalues --    4.29891   4.61710
          Condensed to atoms (all electrons):
               1          2          3          4          5          6
     1  C    4.868784   0.195760  -0.089006   0.551488   0.371863  -0.082643
     2  C    0.195760   4.599077   0.231037  -0.069079  -0.104360   0.614726
     3  N   -0.089006   0.231037   7.137987   0.003102   0.010036  -0.112369
     4  O    0.551488  -0.069079   0.003102   7.901346  -0.045217  -0.006306
     5  H    0.371863  -0.104360   0.010036  -0.045217   0.609906   0.002866
     6  O   -0.082643   0.614726  -0.112369  -0.006306   0.002866   8.031603
     7  H    0.004522  -0.005720   0.308558  -0.000053  -0.000284   0.007120
     8  H    0.003367  -0.008988   0.315861  -0.000002   0.001048   0.003113
               7          8
     1  C    0.004522   0.003367
     2  C   -0.005720  -0.008988
     3  N    0.308558   0.315861
     4  O   -0.000053  -0.000002
     5  H   -0.000284   0.001048
     6  O    0.007120   0.003113
     7  H    0.339553  -0.023140
     8  H   -0.023140   0.357148
 Mulliken charges:
               1
     1  C    0.175866
     2  C    0.547548
     3  N   -0.805206
     4  O   -0.335279
     5  H    0.154143
     6  O   -0.458109
     7  H    0.369445
     8  H    0.351593
 Sum of Mulliken charges =   0.00000
 Mulliken charges with hydrogens summed into heavy atoms:
               1
     1  C    0.330008
     2  C    0.547548
     3  N   -0.084168
     4  O   -0.335279
     6  O   -0.458109
 Electronic spatial extent (au):  <R**2>=            372.3900
 Charge=              0.0000 electrons
 Dipole moment (field-independent basis, Debye):
    X=              3.3051    Y=             -4.2505    Z=             -0.0012  Tot=              5.3843
 Quadrupole moment (field-independent basis, Debye-Ang):
   XX=            -26.2548   YY=            -27.9042   ZZ=            -27.8227
   XY=             -1.2837   XZ=              0.0672   YZ=              0.1123
 Traceless Quadrupole moment (field-independent basis, Debye-Ang):
   XX=              1.0725   YY=             -0.5770   ZZ=             -0.4955
   XY=             -1.2837   XZ=              0.0672   YZ=              0.1123
 Octapole moment (field-independent basis, Debye-Ang**2):
  XXX=             27.8674  YYY=             -9.2366  ZZZ=             -0.0127  XYY=              1.8676
  XXY=             -2.9475  XXZ=              0.1732  XZZ=             -2.7041  YZZ=              1.4655
  YYZ=             -0.1358  XYZ=              0.1890
 Hexadecapole moment (field-independent basis, Debye-Ang**3):
 XXXX=           -257.9204 YYYY=           -116.6264 ZZZZ=            -22.9167 XXXY=             -8.4063
 XXXZ=              0.6673 YYYX=             -9.4012 YYYZ=              0.2478 ZZZX=             -0.0095
 ZZZY=              0.0519 XXYY=            -59.0425 XXZZ=            -53.5679 YYZZ=            -24.3546
 XXYZ=              0.3577 YYXZ=             -0.2244 ZZXY=              0.7860
 N-N= 1.637235023823D+02 E-N=-9.909334528432D+02  KE= 2.807659548130D+02
 1\1\GINC-NODE91\SP\RwB97X\6-31G(d)\C2H3N1O2\YANZ\05-Jun-2019\0\\# 6-31
 g(d) wb97x\\tmpdir/M2_ref_139.gjf\\0,1\C,0,0.393095,-0.138565,13.59764
 5\C,0,0.580851,-1.277869,14.384148\N,0,1.829453,-1.650958,14.901584\O,
 0,-0.72931942,0.12590658,13.17113681\H,0,1.230734,0.500032,13.370366\O
 ,0,-0.37727428,-2.02152885,14.66261523\H,0,1.85535,-2.509577,15.430483
 \H,0,2.70137245,-1.24675429,14.86382631\\Version=ES64L-G16RevA.03\Stat
 e=1-A\HF=-283.1038351\RMSD=9.983e-09\Dipole=2.0827506,0.2230455,0.3158
 726\Quadrupole=0.9119919,-0.5687475,-0.3432444,-0.5391711,0.6775748,0.
 1083103\PG=C01 [X(C2H3N1O2)]\\@


 I KNOW YOU BELIEVE YOU UNDERSTAND WHAT YOU THINK I SAID,
 BUT I AM NOT SURE YOU REALIZE THAT WHAT YOU HEARD IS NOT WHAT I MEANT.
 Job cpu time:       0 days  0 hours  0 minutes 25.2 seconds.
 Elapsed time:       0 days  0 hours  0 minutes 12.8 seconds.
 File lengths (MBytes):  RWF=      6 Int=      0 D2E=      0 Chk=      1 Scr=      1
 Normal termination of Gaussian 16 at Wed Jun  5 16:58:33 2019.
