 Entering Gaussian System, Link 0=g16
 Initial command:
 /share/apps/gaussian/g16/l1.exe "/tmp/55477.mgr/Gau-318005.inp" -scrdir="/tmp/55477.mgr/"
 Entering Link 1 = /share/apps/gaussian/g16/l1.exe PID=    318006.
  
 Copyright (c) 1988,1990,1992,1993,1995,1998,2003,2009,2016,
            Gaussian, Inc.  All Rights Reserved.
  
 This is part of the Gaussian(R) 16 program.  It is based on
 the Gaussian(R) 09 system (copyright 2009, Gaussian, Inc.),
 the Gaussian(R) 03 system (copyright 2003, Gaussian, Inc.),
 the Gaussian(R) 98 system (copyright 1998, Gaussian, Inc.),
 the Gaussian(R) 94 system (copyright 1995, Gaussian, Inc.),
 the Gaussian 92(TM) system (copyright 1992, Gaussian, Inc.),
 the Gaussian 90(TM) system (copyright 1990, Gaussian, Inc.),
 the Gaussian 88(TM) system (copyright 1988, Gaussian, Inc.),
 the Gaussian 86(TM) system (copyright 1986, Carnegie Mellon
 University), and the Gaussian 82(TM) system (copyright 1983,
 Carnegie Mellon University). Gaussian is a federally registered
 trademark of Gaussian, Inc.
  
 This software contains proprietary and confidential information,
 including trade secrets, belonging to Gaussian, Inc.
  
 This software is provided under written license and may be
 used, copied, transmitted, or stored only in accord with that
 written license.
  
 The following legend is applicable only to US Government
 contracts under FAR:
  
                    RESTRICTED RIGHTS LEGEND
  
 Use, reproduction and disclosure by the US Government is
 subject to restrictions as set forth in subparagraphs (a)
 and (c) of the Commercial Computer Software - Restricted
 Rights clause in FAR 52.227-19.
  
 Gaussian, Inc.
 340 Quinnipiac St., Bldg. 40, Wallingford CT 06492
  
  
 ---------------------------------------------------------------
 Warning -- This program may not be used in any manner that
 competes with the business of Gaussian, Inc. or will provide
 assistance to any competitor of Gaussian, Inc.  The licensee
 of this program is prohibited from giving any competitor of
 Gaussian, Inc. access to this program.  By using this program,
 the user acknowledges that Gaussian, Inc. is engaged in the
 business of creating and licensing software in the field of
 computational chemistry and represents and warrants to the
 licensee that it is not a competitor of Gaussian, Inc. and that
 it will not use this program in any manner prohibited above.
 ---------------------------------------------------------------
  

 Cite this work as:
 Gaussian 16, Revision A.03,
 M. J. Frisch, G. W. Trucks, H. B. Schlegel, G. E. Scuseria, 
 M. A. Robb, J. R. Cheeseman, G. Scalmani, V. Barone, 
 G. A. Petersson, H. Nakatsuji, X. Li, M. Caricato, A. V. Marenich, 
 J. Bloino, B. G. Janesko, R. Gomperts, B. Mennucci, H. P. Hratchian, 
 J. V. Ortiz, A. F. Izmaylov, J. L. Sonnenberg, D. Williams-Young, 
 F. Ding, F. Lipparini, F. Egidi, J. Goings, B. Peng, A. Petrone, 
 T. Henderson, D. Ranasinghe, V. G. Zakrzewski, J. Gao, N. Rega, 
 G. Zheng, W. Liang, M. Hada, M. Ehara, K. Toyota, R. Fukuda, 
 J. Hasegawa, M. Ishida, T. Nakajima, Y. Honda, O. Kitao, H. Nakai, 
 T. Vreven, K. Throssell, J. A. Montgomery, Jr., J. E. Peralta, 
 F. Ogliaro, M. J. Bearpark, J. J. Heyd, E. N. Brothers, K. N. Kudin, 
 V. N. Staroverov, T. A. Keith, R. Kobayashi, J. Normand, 
 K. Raghavachari, A. P. Rendell, J. C. Burant, S. S. Iyengar, 
 J. Tomasi, M. Cossi, J. M. Millam, M. Klene, C. Adamo, R. Cammi, 
 J. W. Ochterski, R. L. Martin, K. Morokuma, O. Farkas, 
 J. B. Foresman, and D. J. Fox, Gaussian, Inc., Wallingford CT, 2016.
 
 ******************************************
 Gaussian 16:  ES64L-G16RevA.03 25-Dec-2016
                 5-Jun-2019 
 ******************************************
 %nprocshared=2
 Will use up to    2 processors via shared memory.
 %mem=2GB
 ----------------
 # 6-31g(d) wb97x
 ----------------
 1/38=1,172=1/1;
 2/12=2,17=6,18=5,40=1/2;
 3/5=1,6=6,7=1,11=2,25=1,30=1,74=-57/1,2,3;
 4//1;
 5/5=2,38=5/2;
 6/7=2,8=2,9=2,10=2,28=1/1;
 99/5=1,9=1/99;
 --------------------
 tmpdir/M2_ref_22.gjf
 --------------------
 Symbolic Z-matrix:
 Charge =  0 Multiplicity = 1
 C                    -5.77971   8.17021   8.39902 
 N                    -6.45102   7.14532   7.61677 
 C                    -6.01244   5.82644   8.04295 
 H                    -4.68658   8.07897   8.2977 
 H                    -6.09911   9.15517   8.03799 
 H                    -6.0478    8.10009   9.47229 
 H                    -7.45908   7.23726   7.67266 
 H                    -6.50293   5.07232   7.41594 
 H                    -6.29645   5.62671   9.09586 
 H                    -4.9199    5.7323    7.94285 
 
                          Input orientation:                          
 ---------------------------------------------------------------------
 Center     Atomic      Atomic             Coordinates (Angstroms)
 Number     Number       Type             X           Y           Z
 ---------------------------------------------------------------------
      1          6           0       -5.779709    8.170213    8.399025
      2          7           0       -6.451024    7.145323    7.616772
      3          6           0       -6.012439    5.826435    8.042950
      4          1           0       -4.686576    8.078965    8.297698
      5          1           0       -6.099106    9.155165    8.037987
      6          1           0       -6.047804    8.100094    9.472289
      7          1           0       -7.459084    7.237259    7.672663
      8          1           0       -6.502930    5.072316    7.415941
      9          1           0       -6.296451    5.626708    9.095864
     10          1           0       -4.919900    5.732297    7.942852
 ---------------------------------------------------------------------
                    Distance matrix (angstroms):
                    1          2          3          4          5
     1  C    0.000000
     2  N    1.453610   0.000000
     3  C    2.382068   1.453771   0.000000
     4  H    1.101605   2.109176   2.626157   0.000000
     5  H    1.096583   2.083443   3.329862   1.794686   0.000000
     6  H    1.108462   2.125351   2.685849   1.798069   1.781300
     7  H    2.053851   1.013785   2.054341   2.964108   2.379363
     8  H    3.329635   2.083359   1.096548   3.621681   4.149659
     9  H    2.687382   2.125511   1.108685   3.040120   3.688910
    10  H    2.625034   2.108865   1.101146   2.384787   3.621547
                    6          7          8          9         10
     6  H    0.000000
     7  H    2.444350   0.000000
     8  H    3.688244   2.380570   0.000000
     9  H    2.514192   2.443581   1.781046   0.000000
    10  H    3.036084   2.964012   1.794211   1.798743   0.000000
 Stoichiometry    C2H7N
 Framework group  C1[X(C2H7N)]
 Deg. of freedom    24
 Full point group                 C1      NOp   1
 Largest Abelian subgroup         C1      NOp   1
 Largest concise Abelian subgroup C1      NOp   1
                         Standard orientation:                         
 ---------------------------------------------------------------------
 Center     Atomic      Atomic             Coordinates (Angstroms)
 Number     Number       Type             X           Y           Z
 ---------------------------------------------------------------------
      1          6           0        1.191013   -0.233898    0.018228
      2          7           0        0.000044    0.581133   -0.155838
      3          6           0       -1.191055   -0.234011    0.018154
      4          1           0        1.192948   -1.072112   -0.696563
      5          1           0        2.074935    0.392614   -0.151061
      6          1           0        1.256249   -0.639831    1.047621
      7          1           0        0.000311    1.376761    0.472444
      8          1           0       -2.074724    0.392139   -0.153548
      9          1           0       -1.257941   -0.637120    1.048790
     10          1           0       -1.191838   -1.072927   -0.695108
 ---------------------------------------------------------------------
 Rotational constants (GHZ):          33.3308731           9.6242174           8.3951367
 Standard basis: 6-31G(d) (6D, 7F)
 There are    59 symmetry adapted cartesian basis functions of A   symmetry.
 There are    59 symmetry adapted basis functions of A   symmetry.
    59 basis functions,   112 primitive gaussians,    59 cartesian basis functions
    13 alpha electrons       13 beta electrons
       nuclear repulsion energy        84.3437408893 Hartrees.
 NAtoms=   10 NActive=   10 NUniq=   10 SFac= 1.00D+00 NAtFMM=   60 NAOKFM=F Big=F
 Integral buffers will be    131072 words long.
 Raffenetti 2 integral format.
 Two-electron integral symmetry is turned on.
 One-electron integrals computed using PRISM.
 NBasis=    59 RedAO= T EigKep=  7.48D-03  NBF=    59
 NBsUse=    59 1.00D-06 EigRej= -1.00D+00 NBFU=    59
 ExpMin= 1.61D-01 ExpMax= 4.17D+03 ExpMxC= 6.27D+02 IAcc=3 IRadAn=         5 AccDes= 0.00D+00
 Harris functional with IExCor= 4538 and IRadAn=       5 diagonalized for initial guess.
 HarFok:  IExCor= 4538 AccDes= 0.00D+00 IRadAn=         5 IDoV= 1 UseB2=F ITyADJ=14
 ICtDFT=  3500011 ScaDFX=  1.000000  1.000000  1.000000  1.000000
 FoFCou: FMM=F IPFlag=           0 FMFlag=      100000 FMFlg1=           0
         NFxFlg=           0 DoJE=T BraDBF=F KetDBF=T FulRan=T
         wScrn=  0.000000 ICntrl=       500 IOpCl=  0 I1Cent=   200000004 NGrid=           0
         NMat0=    1 NMatS0=      1 NMatT0=    0 NMatD0=    1 NMtDS0=    0 NMtDT0=    0
 Petite list used in FoFCou.
 Keep R1 ints in memory in canonical form, NReq=4895189.
 Requested convergence on RMS density matrix=1.00D-08 within 128 cycles.
 Requested convergence on MAX density matrix=1.00D-06.
 Requested convergence on             energy=1.00D-06.
 No special actions if energy rises.
 Integral accuracy reduced to 1.0D-05 until final iterations.
 Initial convergence to 1.0D-05 achieved.  Increase integral accuracy.
 SCF Done:  E(RwB97X) =  -135.119996984     A.U. after   13 cycles
            NFock= 13  Conv=0.67D-08     -V/T= 2.0101

 **********************************************************************

            Population analysis using the SCF density.

 **********************************************************************

 Orbital symmetries:
       Occupied  (A) (A) (A) (A) (A) (A) (A) (A) (A) (A) (A) (A)
                 (A)
       Virtual   (A) (A) (A) (A) (A) (A) (A) (A) (A) (A) (A) (A)
                 (A) (A) (A) (A) (A) (A) (A) (A) (A) (A) (A) (A)
                 (A) (A) (A) (A) (A) (A) (A) (A) (A) (A) (A) (A)
                 (A) (A) (A) (A) (A) (A) (A) (A) (A) (A)
 The electronic state is 1-A.
 Alpha  occ. eigenvalues --  -14.38683 -10.27994 -10.27993  -1.02241  -0.81863
 Alpha  occ. eigenvalues --   -0.74518  -0.59658  -0.54890  -0.53320  -0.48697
 Alpha  occ. eigenvalues --   -0.47318  -0.45449  -0.31043
 Alpha virt. eigenvalues --    0.18115   0.22783   0.25267   0.25525   0.26373
 Alpha virt. eigenvalues --    0.29246   0.29630   0.31557   0.36539   0.64086
 Alpha virt. eigenvalues --    0.64154   0.68492   0.69569   0.70730   0.84096
 Alpha virt. eigenvalues --    0.86459   0.93133   0.94659   0.97364   1.01856
 Alpha virt. eigenvalues --    1.03741   1.04040   1.07364   1.09348   1.10711
 Alpha virt. eigenvalues --    1.13591   1.47234   1.52213   1.57894   1.61192
 Alpha virt. eigenvalues --    1.93757   1.99008   2.11866   2.15824   2.16822
 Alpha virt. eigenvalues --    2.25693   2.31936   2.35093   2.46610   2.54093
 Alpha virt. eigenvalues --    2.60092   2.72936   2.87621   4.00139   4.36090
 Alpha virt. eigenvalues --    4.42313
          Condensed to atoms (all electrons):
               1          2          3          4          5          6
     1  C    4.961996   0.319327  -0.071279   0.389481   0.388854   0.375170
     2  N    0.319327   6.848400   0.319264  -0.037879  -0.035861  -0.058420
     3  C   -0.071279   0.319264   4.961968  -0.005057   0.005561  -0.003060
     4  H    0.389481  -0.037879  -0.005057   0.544871  -0.021047  -0.040585
     5  H    0.388854  -0.035861   0.005561  -0.021047   0.540276  -0.036793
     6  H    0.375170  -0.058420  -0.003060  -0.040585  -0.036793   0.634248
     7  H   -0.037464   0.329336  -0.037414   0.004918  -0.002142  -0.004041
     8  H    0.005562  -0.035904   0.388864   0.000133  -0.000192  -0.000277
     9  H   -0.003072  -0.058368   0.375188  -0.001668  -0.000276   0.011874
    10  H   -0.005045  -0.037852   0.389520   0.006596   0.000133  -0.001677
               7          8          9         10
     1  C   -0.037464   0.005562  -0.003072  -0.005045
     2  N    0.329336  -0.035904  -0.058368  -0.037852
     3  C   -0.037414   0.388864   0.375188   0.389520
     4  H    0.004918   0.000133  -0.001668   0.006596
     5  H   -0.002142  -0.000192  -0.000276   0.000133
     6  H   -0.004041  -0.000277   0.011874  -0.001677
     7  H    0.439721  -0.002124  -0.004055   0.004916
     8  H   -0.002124   0.540333  -0.036845  -0.021077
     9  H   -0.004055  -0.036845   0.634073  -0.040425
    10  H    0.004916  -0.021077  -0.040425   0.544516
 Mulliken charges:
               1
     1  C   -0.323531
     2  N   -0.552044
     3  C   -0.323556
     4  H    0.160237
     5  H    0.161487
     6  H    0.123562
     7  H    0.308348
     8  H    0.161528
     9  H    0.123574
    10  H    0.160395
 Sum of Mulliken charges =   0.00000
 Mulliken charges with hydrogens summed into heavy atoms:
               1
     1  C    0.121756
     2  N   -0.243696
     3  C    0.121940
 Electronic spatial extent (au):  <R**2>=            201.1659
 Charge=              0.0000 electrons
 Dipole moment (field-independent basis, Debye):
    X=             -0.0004    Y=             -0.1590    Z=              1.0351  Tot=              1.0472
 Quadrupole moment (field-independent basis, Debye-Ang):
   XX=            -19.6938   YY=            -19.8757   ZZ=            -21.6516
   XY=              0.0015   XZ=              0.0009   YZ=              2.1781
 Traceless Quadrupole moment (field-independent basis, Debye-Ang):
   XX=              0.7132   YY=              0.5313   ZZ=             -1.2445
   XY=              0.0015   XZ=              0.0009   YZ=              2.1781
 Octapole moment (field-independent basis, Debye-Ang**2):
  XXX=              0.0005  YYY=              3.3465  ZZZ=              1.1207  XYY=              0.0013
  XXY=              1.9339  XXZ=             -0.8888  XZZ=             -0.0037  YZZ=             -0.5592
  YYZ=              1.2848  XYZ=              0.0008
 Hexadecapole moment (field-independent basis, Debye-Ang**3):
 XXXX=           -171.7791 YYYY=            -53.9065 ZZZZ=            -38.0924 XXXY=              0.0068
 XXXZ=              0.0080 YYYX=              0.0044 YYYZ=              5.0481 ZZZX=             -0.0031
 ZZZY=              2.1341 XXYY=            -37.7644 XXZZ=            -36.4120 YYZZ=            -15.3564
 XXYZ=              0.4137 YYXZ=              0.0039 ZZXY=             -0.0005
 N-N= 8.434374088926D+01 E-N=-4.817132418309D+02  KE= 1.337635283157D+02
 1\1\GINC-NODE91\SP\RwB97X\6-31G(d)\C2H7N1\YANZ\05-Jun-2019\0\\# 6-31g(
 d) wb97x\\tmpdir/M2_ref_22.gjf\\0,1\C,0,-5.779709,8.170213,8.399025\N,
 0,-6.451024,7.145323,7.616772\C,0,-6.012439,5.826435,8.04295\H,0,-4.68
 657599,8.078965,8.29769761\H,0,-6.099106,9.155165,8.037987\H,0,-6.0478
 04,8.100094,9.472289\H,0,-7.459084,7.23725852,7.67266319\H,0,-6.50293,
 5.072316,7.415941\H,0,-6.296451,5.626708,9.095864\H,0,-4.9199003,5.732
 29652,7.94285249\\Version=ES64L-G16RevA.03\State=1-A\HF=-135.119997\RM
 SD=6.734e-09\Dipole=-0.1875839,-0.036989,0.3649612\Quadrupole=1.469888
 6,0.4857243,-1.9556129,-0.1111725,0.1085423,0.3667877\PG=C01 [X(C2H7N1
 )]\\@


 SI MONUMENTUM REQUIRIS, CIRCUMSPICE
     -- FROM SIR CHRISTOPHER WREN'S TOMBSTONE
 Job cpu time:       0 days  0 hours  0 minutes 18.3 seconds.
 Elapsed time:       0 days  0 hours  0 minutes  9.3 seconds.
 File lengths (MBytes):  RWF=      6 Int=      0 D2E=      0 Chk=      1 Scr=      1
 Normal termination of Gaussian 16 at Wed Jun  5 16:57:28 2019.
