 Entering Gaussian System, Link 0=g16
 Initial command:
 /share/apps/gaussian/g16/l1.exe "/tmp/55477.mgr/Gau-318185.inp" -scrdir="/tmp/55477.mgr/"
 Entering Link 1 = /share/apps/gaussian/g16/l1.exe PID=    318186.
  
 Copyright (c) 1988,1990,1992,1993,1995,1998,2003,2009,2016,
            Gaussian, Inc.  All Rights Reserved.
  
 This is part of the Gaussian(R) 16 program.  It is based on
 the Gaussian(R) 09 system (copyright 2009, Gaussian, Inc.),
 the Gaussian(R) 03 system (copyright 2003, Gaussian, Inc.),
 the Gaussian(R) 98 system (copyright 1998, Gaussian, Inc.),
 the Gaussian(R) 94 system (copyright 1995, Gaussian, Inc.),
 the Gaussian 92(TM) system (copyright 1992, Gaussian, Inc.),
 the Gaussian 90(TM) system (copyright 1990, Gaussian, Inc.),
 the Gaussian 88(TM) system (copyright 1988, Gaussian, Inc.),
 the Gaussian 86(TM) system (copyright 1986, Carnegie Mellon
 University), and the Gaussian 82(TM) system (copyright 1983,
 Carnegie Mellon University). Gaussian is a federally registered
 trademark of Gaussian, Inc.
  
 This software contains proprietary and confidential information,
 including trade secrets, belonging to Gaussian, Inc.
  
 This software is provided under written license and may be
 used, copied, transmitted, or stored only in accord with that
 written license.
  
 The following legend is applicable only to US Government
 contracts under FAR:
  
                    RESTRICTED RIGHTS LEGEND
  
 Use, reproduction and disclosure by the US Government is
 subject to restrictions as set forth in subparagraphs (a)
 and (c) of the Commercial Computer Software - Restricted
 Rights clause in FAR 52.227-19.
  
 Gaussian, Inc.
 340 Quinnipiac St., Bldg. 40, Wallingford CT 06492
  
  
 ---------------------------------------------------------------
 Warning -- This program may not be used in any manner that
 competes with the business of Gaussian, Inc. or will provide
 assistance to any competitor of Gaussian, Inc.  The licensee
 of this program is prohibited from giving any competitor of
 Gaussian, Inc. access to this program.  By using this program,
 the user acknowledges that Gaussian, Inc. is engaged in the
 business of creating and licensing software in the field of
 computational chemistry and represents and warrants to the
 licensee that it is not a competitor of Gaussian, Inc. and that
 it will not use this program in any manner prohibited above.
 ---------------------------------------------------------------
  

 Cite this work as:
 Gaussian 16, Revision A.03,
 M. J. Frisch, G. W. Trucks, H. B. Schlegel, G. E. Scuseria, 
 M. A. Robb, J. R. Cheeseman, G. Scalmani, V. Barone, 
 G. A. Petersson, H. Nakatsuji, X. Li, M. Caricato, A. V. Marenich, 
 J. Bloino, B. G. Janesko, R. Gomperts, B. Mennucci, H. P. Hratchian, 
 J. V. Ortiz, A. F. Izmaylov, J. L. Sonnenberg, D. Williams-Young, 
 F. Ding, F. Lipparini, F. Egidi, J. Goings, B. Peng, A. Petrone, 
 T. Henderson, D. Ranasinghe, V. G. Zakrzewski, J. Gao, N. Rega, 
 G. Zheng, W. Liang, M. Hada, M. Ehara, K. Toyota, R. Fukuda, 
 J. Hasegawa, M. Ishida, T. Nakajima, Y. Honda, O. Kitao, H. Nakai, 
 T. Vreven, K. Throssell, J. A. Montgomery, Jr., J. E. Peralta, 
 F. Ogliaro, M. J. Bearpark, J. J. Heyd, E. N. Brothers, K. N. Kudin, 
 V. N. Staroverov, T. A. Keith, R. Kobayashi, J. Normand, 
 K. Raghavachari, A. P. Rendell, J. C. Burant, S. S. Iyengar, 
 J. Tomasi, M. Cossi, J. M. Millam, M. Klene, C. Adamo, R. Cammi, 
 J. W. Ochterski, R. L. Martin, K. Morokuma, O. Farkas, 
 J. B. Foresman, and D. J. Fox, Gaussian, Inc., Wallingford CT, 2016.
 
 ******************************************
 Gaussian 16:  ES64L-G16RevA.03 25-Dec-2016
                 5-Jun-2019 
 ******************************************
 %nprocshared=2
 Will use up to    2 processors via shared memory.
 %mem=2GB
 ----------------
 # 6-31g(d) wb97x
 ----------------
 1/38=1,172=1/1;
 2/12=2,17=6,18=5,40=1/2;
 3/5=1,6=6,7=1,11=2,25=1,30=1,74=-57/1,2,3;
 4//1;
 5/5=2,38=5/2;
 6/7=2,8=2,9=2,10=2,28=1/1;
 99/5=1,9=1/99;
 -------------------
 tmpdir/M2_ref_9.gjf
 -------------------
 Symbolic Z-matrix:
 Charge =  0 Multiplicity = 1
 C                    -5.77971   8.17021   8.39902 
 C                    -4.26962   8.04416   8.25905 
 N                    -3.83196   6.72409   8.69119 
 H                    -6.09911   9.15517   8.03799 
 H                    -6.0478    8.10009   9.47229 
 H                    -6.30737   7.36464   7.78417 
 H                    -3.98842   8.23874   7.2062 
 H                    -3.77997   8.80014   8.88436 
 H                    -4.30193   6.0045    8.14048 
 H                    -2.82071   6.63031   8.65237 
 
                          Input orientation:                          
 ---------------------------------------------------------------------
 Center     Atomic      Atomic             Coordinates (Angstroms)
 Number     Number       Type             X           Y           Z
 ---------------------------------------------------------------------
      1          6           0       -5.779709    8.170213    8.399025
      2          6           0       -4.269619    8.044160    8.259048
      3          7           0       -3.831962    6.724086    8.691193
      4          1           0       -6.099106    9.155165    8.037987
      5          1           0       -6.047804    8.100094    9.472289
      6          1           0       -6.307370    7.364638    7.784166
      7          1           0       -3.988423    8.238737    7.206202
      8          1           0       -3.779965    8.800140    8.884362
      9          1           0       -4.301934    6.004504    8.140480
     10          1           0       -2.820715    6.630310    8.652372
 ---------------------------------------------------------------------
                    Distance matrix (angstroms):
                    1          2          3          4          5
     1  C    0.000000
     2  C    1.521793   0.000000
     3  N    2.443433   1.456327   0.000000
     4  H    1.096583   2.151795   3.387737   0.000000
     5  H    1.108462   2.153375   2.722768   1.781300   0.000000
     6  H    1.142554   2.199930   2.713052   1.820381   1.859578
     7  H    2.153190   1.106985   2.126933   2.446771   3.065195
     8  H    2.152054   1.096487   2.085670   2.494155   2.445162
     9  H    2.634570   2.043355   1.020763   3.628636   3.035338
    10  H    3.345315   2.062280   1.016328   4.183326   3.639593
                    6          7          8          9         10
     6  H    0.000000
     7  H    2.544721   0.000000
     8  H    3.107873   1.781811   0.000000
     9  H    2.449224   2.441918   2.939625   0.000000
    10  H    3.667395   2.458046   2.383725   1.687507   0.000000
 Stoichiometry    C2H7N
 Framework group  C1[X(C2H7N)]
 Deg. of freedom    24
 Full point group                 C1      NOp   1
 Largest Abelian subgroup         C1      NOp   1
 Largest concise Abelian subgroup C1      NOp   1
                         Standard orientation:                         
 ---------------------------------------------------------------------
 Center     Atomic      Atomic             Coordinates (Angstroms)
 Number     Number       Type             X           Y           Z
 ---------------------------------------------------------------------
      1          6           0        1.239691   -0.239961   -0.034712
      2          6           0       -0.050241    0.561301    0.064834
      3          7           0       -1.201297   -0.312195   -0.116724
      4          1           0        2.095851    0.423032    0.138270
      5          1           0        1.330186   -0.648478   -1.061168
      6          1           0        1.255405   -1.072204    0.747946
      7          1           0       -0.081424    1.072443    1.046250
      8          1           0       -0.064423    1.330220   -0.716733
      9          1           0       -1.188248   -1.054535    0.583789
     10          1           0       -2.074969    0.206845   -0.102014
 ---------------------------------------------------------------------
 Rotational constants (GHZ):          32.3478517           9.0030627           7.9011129
 Standard basis: 6-31G(d) (6D, 7F)
 There are    59 symmetry adapted cartesian basis functions of A   symmetry.
 There are    59 symmetry adapted basis functions of A   symmetry.
    59 basis functions,   112 primitive gaussians,    59 cartesian basis functions
    13 alpha electrons       13 beta electrons
       nuclear repulsion energy        82.8447083439 Hartrees.
 NAtoms=   10 NActive=   10 NUniq=   10 SFac= 1.00D+00 NAtFMM=   60 NAOKFM=F Big=F
 Integral buffers will be    131072 words long.
 Raffenetti 2 integral format.
 Two-electron integral symmetry is turned on.
 One-electron integrals computed using PRISM.
 NBasis=    59 RedAO= T EigKep=  5.83D-03  NBF=    59
 NBsUse=    59 1.00D-06 EigRej= -1.00D+00 NBFU=    59
 ExpMin= 1.61D-01 ExpMax= 4.17D+03 ExpMxC= 6.27D+02 IAcc=3 IRadAn=         5 AccDes= 0.00D+00
 Harris functional with IExCor= 4538 and IRadAn=       5 diagonalized for initial guess.
 HarFok:  IExCor= 4538 AccDes= 0.00D+00 IRadAn=         5 IDoV= 1 UseB2=F ITyADJ=14
 ICtDFT=  3500011 ScaDFX=  1.000000  1.000000  1.000000  1.000000
 FoFCou: FMM=F IPFlag=           0 FMFlag=      100000 FMFlg1=           0
         NFxFlg=           0 DoJE=T BraDBF=F KetDBF=T FulRan=T
         wScrn=  0.000000 ICntrl=       500 IOpCl=  0 I1Cent=   200000004 NGrid=           0
         NMat0=    1 NMatS0=      1 NMatT0=    0 NMatD0=    1 NMtDS0=    0 NMtDT0=    0
 Petite list used in FoFCou.
 Keep R1 ints in memory in canonical form, NReq=4895189.
 Requested convergence on RMS density matrix=1.00D-08 within 128 cycles.
 Requested convergence on MAX density matrix=1.00D-06.
 Requested convergence on             energy=1.00D-06.
 No special actions if energy rises.
 Integral accuracy reduced to 1.0D-05 until final iterations.
 Initial convergence to 1.0D-05 achieved.  Increase integral accuracy.
 SCF Done:  E(RwB97X) =  -135.127336737     A.U. after   13 cycles
            NFock= 13  Conv=0.60D-08     -V/T= 2.0106

 **********************************************************************

            Population analysis using the SCF density.

 **********************************************************************

 Orbital symmetries:
       Occupied  (A) (A) (A) (A) (A) (A) (A) (A) (A) (A) (A) (A)
                 (A)
       Virtual   (A) (A) (A) (A) (A) (A) (A) (A) (A) (A) (A) (A)
                 (A) (A) (A) (A) (A) (A) (A) (A) (A) (A) (A) (A)
                 (A) (A) (A) (A) (A) (A) (A) (A) (A) (A) (A) (A)
                 (A) (A) (A) (A) (A) (A) (A) (A) (A) (A)
 The electronic state is 1-A.
 Alpha  occ. eigenvalues --  -14.37874 -10.28461 -10.25909  -0.99969  -0.84922
 Alpha  occ. eigenvalues --   -0.71441  -0.59993  -0.56543  -0.52599  -0.46319
 Alpha  occ. eigenvalues --   -0.45943  -0.44405  -0.32221
 Alpha virt. eigenvalues --    0.18087   0.22327   0.23406   0.26177   0.27043
 Alpha virt. eigenvalues --    0.28880   0.29869   0.33552   0.35927   0.63534
 Alpha virt. eigenvalues --    0.66464   0.68109   0.69273   0.78719   0.79174
 Alpha virt. eigenvalues --    0.85118   0.92261   0.96560   0.98967   1.00275
 Alpha virt. eigenvalues --    1.02018   1.05454   1.06683   1.08528   1.10913
 Alpha virt. eigenvalues --    1.16524   1.42569   1.56329   1.58417   1.68885
 Alpha virt. eigenvalues --    1.86806   2.01089   2.06270   2.09091   2.17810
 Alpha virt. eigenvalues --    2.28840   2.29388   2.40974   2.44429   2.48076
 Alpha virt. eigenvalues --    2.62071   2.71604   2.83795   3.90189   4.30992
 Alpha virt. eigenvalues --    4.54026
          Condensed to atoms (all electrons):
               1          2          3          4          5          6
     1  C    5.106038   0.367520  -0.063167   0.373203   0.378235   0.379968
     2  C    0.367520   4.849991   0.309965  -0.030689  -0.034211  -0.034957
     3  N   -0.063167   0.309965   6.938963   0.004021   0.003390  -0.004312
     4  H    0.373203  -0.030689   0.004021   0.552793  -0.025332  -0.025939
     5  H    0.378235  -0.034211   0.003390  -0.025332   0.532971  -0.023679
     6  H    0.379968  -0.034957  -0.004312  -0.025939  -0.023679   0.567008
     7  H   -0.051184   0.391504  -0.055027   0.000130   0.005499  -0.004779
     8  H   -0.029939   0.391946  -0.042199  -0.002474  -0.006085   0.004380
     9  H   -0.004256  -0.036686   0.324005  -0.000171  -0.000424   0.005621
    10  H    0.005503  -0.032453   0.326592  -0.000188  -0.000098   0.000012
               7          8          9         10
     1  C   -0.051184  -0.029939  -0.004256   0.005503
     2  C    0.391504   0.391946  -0.036686  -0.032453
     3  N   -0.055027  -0.042199   0.324005   0.326592
     4  H    0.000130  -0.002474  -0.000171  -0.000188
     5  H    0.005499  -0.006085  -0.000424  -0.000098
     6  H   -0.004779   0.004380   0.005621   0.000012
     7  H    0.642740  -0.044062  -0.003546  -0.002243
     8  H   -0.044062   0.573284   0.005613  -0.002643
     9  H   -0.003546   0.005613   0.434341  -0.026409
    10  H   -0.002243  -0.002643  -0.026409   0.421965
 Mulliken charges:
               1
     1  C   -0.461921
     2  C   -0.141930
     3  N   -0.742230
     4  H    0.154647
     5  H    0.169735
     6  H    0.136678
     7  H    0.120969
     8  H    0.152180
     9  H    0.301912
    10  H    0.309961
 Sum of Mulliken charges =   0.00000
 Mulliken charges with hydrogens summed into heavy atoms:
               1
     1  C   -0.000862
     2  C    0.131219
     3  N   -0.130358
 Electronic spatial extent (au):  <R**2>=            206.9062
 Charge=              0.0000 electrons
 Dipole moment (field-independent basis, Debye):
    X=             -0.2395    Y=              0.5442    Z=              1.1185  Tot=              1.2667
 Quadrupole moment (field-independent basis, Debye-Ang):
   XX=            -19.0280   YY=            -20.3017   ZZ=            -21.1993
   XY=             -0.5984   XZ=             -1.5917   YZ=             -1.8211
 Traceless Quadrupole moment (field-independent basis, Debye-Ang):
   XX=              1.1483   YY=             -0.1254   ZZ=             -1.0229
   XY=             -0.5984   XZ=             -1.5917   YZ=             -1.8211
 Octapole moment (field-independent basis, Debye-Ang**2):
  XXX=            -10.0690  YYY=             -1.1168  ZZZ=              0.6015  XYY=             -1.6823
  XXY=              2.2475  XXZ=              1.5694  XZZ=              0.0813  YZZ=             -0.2321
  YYZ=              1.3055  XYZ=              1.9366
 Hexadecapole moment (field-independent basis, Debye-Ang**3):
 XXXX=           -156.8600 YYYY=            -60.9390 ZZZZ=            -37.5396 XXXY=             -0.0739
 XXXZ=             -1.7298 YYYX=              1.9151 YYYZ=             -3.5917 ZZZX=             -2.5439
 ZZZY=             -1.4699 XXYY=            -38.0873 XXZZ=            -36.5941 YYZZ=            -15.3349
 XXYZ=             -2.4242 YYXZ=             -1.4355 ZZXY=             -0.6989
 N-N= 8.284470834393D+01 E-N=-4.788244528476D+02  KE= 1.337127803763D+02
 1\1\GINC-NODE91\SP\RwB97X\6-31G(d)\C2H7N1\YANZ\05-Jun-2019\0\\# 6-31g(
 d) wb97x\\tmpdir/M2_ref_9.gjf\\0,1\C,0,-5.779709,8.170213,8.399025\C,0
 ,-4.269619,8.04416,8.259048\N,0,-3.831962,6.724086,8.691193\H,0,-6.099
 106,9.155165,8.037987\H,0,-6.047804,8.100094,9.472289\H,0,-6.30736997,
 7.36463819,7.78416554\H,0,-3.988423,8.238737,7.206202\H,0,-3.779965,8.
 80014,8.884362\H,0,-4.30193446,6.00450387,8.14047965\H,0,-2.82071474,6
 .63030969,8.65237242\\Version=ES64L-G16RevA.03\State=1-A\HF=-135.12733
 67\RMSD=5.968e-09\Dipole=0.1826387,0.0290903,-0.4627823\Quadrupole=0.9
 377134,0.4793514,-1.4170648,-0.2725535,-0.1984949,1.554732\PG=C01 [X(C
 2H7N1)]\\@


 WE LEARN WISDOM FROM FAILURE MUCH MORE THAN FROM SUCCESS.
 WE DISCOVER WHAT WILL DO BY FINDING OUT WHAT WILL NOT DO...
 AND HE WHO NEVER MADE A MISTAKE NEVER MADE A DISCOVERY
 Job cpu time:       0 days  0 hours  0 minutes 17.9 seconds.
 Elapsed time:       0 days  0 hours  0 minutes  9.0 seconds.
 File lengths (MBytes):  RWF=      6 Int=      0 D2E=      0 Chk=      1 Scr=      1
 Normal termination of Gaussian 16 at Wed Jun  5 16:57:34 2019.
