 Entering Gaussian System, Link 0=g16
 Initial command:
 /share/apps/gaussian/g16/l1.exe "/tmp/55477.mgr/Gau-319889.inp" -scrdir="/tmp/55477.mgr/"
 Entering Link 1 = /share/apps/gaussian/g16/l1.exe PID=    319890.
  
 Copyright (c) 1988,1990,1992,1993,1995,1998,2003,2009,2016,
            Gaussian, Inc.  All Rights Reserved.
  
 This is part of the Gaussian(R) 16 program.  It is based on
 the Gaussian(R) 09 system (copyright 2009, Gaussian, Inc.),
 the Gaussian(R) 03 system (copyright 2003, Gaussian, Inc.),
 the Gaussian(R) 98 system (copyright 1998, Gaussian, Inc.),
 the Gaussian(R) 94 system (copyright 1995, Gaussian, Inc.),
 the Gaussian 92(TM) system (copyright 1992, Gaussian, Inc.),
 the Gaussian 90(TM) system (copyright 1990, Gaussian, Inc.),
 the Gaussian 88(TM) system (copyright 1988, Gaussian, Inc.),
 the Gaussian 86(TM) system (copyright 1986, Carnegie Mellon
 University), and the Gaussian 82(TM) system (copyright 1983,
 Carnegie Mellon University). Gaussian is a federally registered
 trademark of Gaussian, Inc.
  
 This software contains proprietary and confidential information,
 including trade secrets, belonging to Gaussian, Inc.
  
 This software is provided under written license and may be
 used, copied, transmitted, or stored only in accord with that
 written license.
  
 The following legend is applicable only to US Government
 contracts under FAR:
  
                    RESTRICTED RIGHTS LEGEND
  
 Use, reproduction and disclosure by the US Government is
 subject to restrictions as set forth in subparagraphs (a)
 and (c) of the Commercial Computer Software - Restricted
 Rights clause in FAR 52.227-19.
  
 Gaussian, Inc.
 340 Quinnipiac St., Bldg. 40, Wallingford CT 06492
  
  
 ---------------------------------------------------------------
 Warning -- This program may not be used in any manner that
 competes with the business of Gaussian, Inc. or will provide
 assistance to any competitor of Gaussian, Inc.  The licensee
 of this program is prohibited from giving any competitor of
 Gaussian, Inc. access to this program.  By using this program,
 the user acknowledges that Gaussian, Inc. is engaged in the
 business of creating and licensing software in the field of
 computational chemistry and represents and warrants to the
 licensee that it is not a competitor of Gaussian, Inc. and that
 it will not use this program in any manner prohibited above.
 ---------------------------------------------------------------
  

 Cite this work as:
 Gaussian 16, Revision A.03,
 M. J. Frisch, G. W. Trucks, H. B. Schlegel, G. E. Scuseria, 
 M. A. Robb, J. R. Cheeseman, G. Scalmani, V. Barone, 
 G. A. Petersson, H. Nakatsuji, X. Li, M. Caricato, A. V. Marenich, 
 J. Bloino, B. G. Janesko, R. Gomperts, B. Mennucci, H. P. Hratchian, 
 J. V. Ortiz, A. F. Izmaylov, J. L. Sonnenberg, D. Williams-Young, 
 F. Ding, F. Lipparini, F. Egidi, J. Goings, B. Peng, A. Petrone, 
 T. Henderson, D. Ranasinghe, V. G. Zakrzewski, J. Gao, N. Rega, 
 G. Zheng, W. Liang, M. Hada, M. Ehara, K. Toyota, R. Fukuda, 
 J. Hasegawa, M. Ishida, T. Nakajima, Y. Honda, O. Kitao, H. Nakai, 
 T. Vreven, K. Throssell, J. A. Montgomery, Jr., J. E. Peralta, 
 F. Ogliaro, M. J. Bearpark, J. J. Heyd, E. N. Brothers, K. N. Kudin, 
 V. N. Staroverov, T. A. Keith, R. Kobayashi, J. Normand, 
 K. Raghavachari, A. P. Rendell, J. C. Burant, S. S. Iyengar, 
 J. Tomasi, M. Cossi, J. M. Millam, M. Klene, C. Adamo, R. Cammi, 
 J. W. Ochterski, R. L. Martin, K. Morokuma, O. Farkas, 
 J. B. Foresman, and D. J. Fox, Gaussian, Inc., Wallingford CT, 2016.
 
 ******************************************
 Gaussian 16:  ES64L-G16RevA.03 25-Dec-2016
                 5-Jun-2019 
 ******************************************
 %nprocshared=2
 Will use up to    2 processors via shared memory.
 %mem=2GB
 ----------------
 # 6-31g(d) wb97x
 ----------------
 1/38=1,172=1/1;
 2/12=2,17=6,18=5,40=1/2;
 3/5=1,6=6,7=1,11=2,25=1,30=1,74=-57/1,2,3;
 4//1;
 5/5=2,38=5/2;
 6/7=2,8=2,9=2,10=2,28=1/1;
 99/5=1,9=1/99;
 ---------------------
 tmpdir/M2_ref_192.gjf
 ---------------------
 Symbolic Z-matrix:
 Charge =  0 Multiplicity = 1
 C                     4.69498   1.86037   13.47925 
 C                     5.75709   2.72061   13.76777 
 N                     5.96521   3.88438   13.15447 
 H                     4.55923   0.93027   14.00035 
 O                     3.89579   2.21016   12.61206 
 H                     6.47025   2.4715    14.55324 
 H                     5.35286   4.13276   12.49313 
 
                          Input orientation:                          
 ---------------------------------------------------------------------
 Center     Atomic      Atomic             Coordinates (Angstroms)
 Number     Number       Type             X           Y           Z
 ---------------------------------------------------------------------
      1          6           0        4.694978    1.860366   13.479253
      2          6           0        5.757091    2.720608   13.767767
      3          7           0        5.965207    3.884381   13.154473
      4          1           0        4.559227    0.930274   14.000350
      5          8           0        3.895789    2.210159   12.612057
      6          1           0        6.470246    2.471497   14.553239
      7          1           0        5.352862    4.132760   12.493130
 ---------------------------------------------------------------------
                    Distance matrix (angstroms):
                    1          2          3          4          5
     1  C    0.000000
     2  C    1.396904   0.000000
     3  N    2.411556   1.331844   0.000000
     4  H    1.074729   2.166626   3.379206   0.000000
     5  O    1.230076   2.249594   2.716566   2.001403   0.000000
     6  H    2.162985   1.089776   2.051305   2.516555   3.234860
     7  H    2.563010   1.944806   0.934897   3.627324   2.415285
                    6          7
     6  H    0.000000
     7  H    2.872697   0.000000
 Stoichiometry    C2H3NO
 Framework group  C1[X(C2H3NO)]
 Deg. of freedom    15
 Full point group                 C1      NOp   1
 Largest Abelian subgroup         C1      NOp   1
 Largest concise Abelian subgroup C1      NOp   1
                         Standard orientation:                         
 ---------------------------------------------------------------------
 Center     Atomic      Atomic             Coordinates (Angstroms)
 Number     Number       Type             X           Y           Z
 ---------------------------------------------------------------------
      1          6           0        0.763204    0.502861   -0.006183
      2          6           0       -0.630925    0.590742   -0.001532
      3          7           0       -1.447006   -0.461789   -0.001390
      4          1           0        1.387838    1.377422   -0.002026
      5          8           0        1.264932   -0.620194    0.004001
      6          1           0       -1.121676    1.563360    0.026570
      7          1           0       -1.050249   -1.308321   -0.000533
 ---------------------------------------------------------------------
 Rotational constants (GHZ):          22.5910235           7.1143081           5.4106211
 Standard basis: 6-31G(d) (6D, 7F)
 There are    66 symmetry adapted cartesian basis functions of A   symmetry.
 There are    66 symmetry adapted basis functions of A   symmetry.
    66 basis functions,   124 primitive gaussians,    66 cartesian basis functions
    15 alpha electrons       15 beta electrons
       nuclear repulsion energy       106.6445576435 Hartrees.
 NAtoms=    7 NActive=    7 NUniq=    7 SFac= 1.00D+00 NAtFMM=   60 NAOKFM=F Big=F
 Integral buffers will be    131072 words long.
 Raffenetti 2 integral format.
 Two-electron integral symmetry is turned on.
 One-electron integrals computed using PRISM.
 NBasis=    66 RedAO= T EigKep=  2.66D-03  NBF=    66
 NBsUse=    66 1.00D-06 EigRej= -1.00D+00 NBFU=    66
 ExpMin= 1.61D-01 ExpMax= 5.48D+03 ExpMxC= 8.25D+02 IAcc=3 IRadAn=         5 AccDes= 0.00D+00
 Harris functional with IExCor= 4538 and IRadAn=       5 diagonalized for initial guess.
 HarFok:  IExCor= 4538 AccDes= 0.00D+00 IRadAn=         5 IDoV= 1 UseB2=F ITyADJ=14
 ICtDFT=  3500011 ScaDFX=  1.000000  1.000000  1.000000  1.000000
 FoFCou: FMM=F IPFlag=           0 FMFlag=      100000 FMFlg1=           0
         NFxFlg=           0 DoJE=T BraDBF=F KetDBF=T FulRan=T
         wScrn=  0.000000 ICntrl=       500 IOpCl=  0 I1Cent=   200000004 NGrid=           0
         NMat0=    1 NMatS0=      1 NMatT0=    0 NMatD0=    1 NMtDS0=    0 NMtDT0=    0
 Petite list used in FoFCou.
 Keep R1 ints in memory in canonical form, NReq=6667331.
 Requested convergence on RMS density matrix=1.00D-08 within 128 cycles.
 Requested convergence on MAX density matrix=1.00D-06.
 Requested convergence on             energy=1.00D-06.
 No special actions if energy rises.
 Integral accuracy reduced to 1.0D-05 until final iterations.
 Initial convergence to 1.0D-05 achieved.  Increase integral accuracy.
 SCF Done:  E(RwB97X) =  -207.864643353     A.U. after   16 cycles
            NFock= 16  Conv=0.79D-08     -V/T= 2.0081

 **********************************************************************

            Population analysis using the SCF density.

 **********************************************************************

 Orbital symmetries:
       Occupied  (A) (A) (A) (A) (A) (A) (A) (A) (A) (A) (A) (A)
                 (A) (A) (A)
       Virtual   (A) (A) (A) (A) (A) (A) (A) (A) (A) (A) (A) (A)
                 (A) (A) (A) (A) (A) (A) (A) (A) (A) (A) (A) (A)
                 (A) (A) (A) (A) (A) (A) (A) (A) (A) (A) (A) (A)
                 (A) (A) (A) (A) (A) (A) (A) (A) (A) (A) (A) (A)
                 (A) (A) (A)
 The electronic state is 1-A.
 Alpha  occ. eigenvalues --  -19.23941 -14.42848 -10.37482 -10.33720  -1.19011
 Alpha  occ. eigenvalues --   -1.03884  -0.85581  -0.71338  -0.65301  -0.59657
 Alpha  occ. eigenvalues --   -0.53598  -0.53309  -0.42215  -0.40161  -0.37974
 Alpha virt. eigenvalues --   -0.01974   0.15145   0.21010   0.24018   0.25218
 Alpha virt. eigenvalues --    0.32594   0.44430   0.47190   0.60608   0.62854
 Alpha virt. eigenvalues --    0.68930   0.70099   0.73489   0.77624   0.82091
 Alpha virt. eigenvalues --    0.85873   0.89950   0.94938   0.96606   1.06212
 Alpha virt. eigenvalues --    1.08023   1.08134   1.13359   1.22037   1.24240
 Alpha virt. eigenvalues --    1.39382   1.40655   1.51569   1.62700   1.64293
 Alpha virt. eigenvalues --    1.78480   1.84615   1.89599   1.93429   1.96996
 Alpha virt. eigenvalues --    2.10354   2.14202   2.32159   2.37965   2.41155
 Alpha virt. eigenvalues --    2.45944   2.60131   2.71575   2.72382   2.90216
 Alpha virt. eigenvalues --    2.99912   3.19397   3.82088   3.99686   4.18994
 Alpha virt. eigenvalues --    4.44319
          Condensed to atoms (all electrons):
               1          2          3          4          5          6
     1  C    4.698627   0.302619  -0.054235   0.359688   0.545334  -0.052951
     2  C    0.302619   5.001836   0.609514  -0.085564  -0.087070   0.359766
     3  N   -0.054235   0.609514   6.657829   0.004410  -0.017219  -0.038216
     4  H    0.359688  -0.085564   0.004410   0.602236  -0.049680   0.006502
     5  O    0.545334  -0.087070  -0.017219  -0.049680   7.973771   0.003393
     6  H   -0.052951   0.359766  -0.038216   0.006502   0.003393   0.532899
     7  H   -0.007891  -0.065547   0.308626   0.000926   0.018950   0.006483
               7
     1  C   -0.007891
     2  C   -0.065547
     3  N    0.308626
     4  H    0.000926
     5  O    0.018950
     6  H    0.006483
     7  H    0.397128
 Mulliken charges:
               1
     1  C    0.208809
     2  C   -0.035553
     3  N   -0.470707
     4  H    0.161482
     5  O   -0.387480
     6  H    0.182125
     7  H    0.341325
 Sum of Mulliken charges =  -0.00000
 Mulliken charges with hydrogens summed into heavy atoms:
               1
     1  C    0.370291
     2  C    0.146572
     3  N   -0.129382
     5  O   -0.387480
 Electronic spatial extent (au):  <R**2>=            238.0285
 Charge=              0.0000 electrons
 Dipole moment (field-independent basis, Debye):
    X=              0.5505    Y=              2.0334    Z=             -0.0051  Tot=              2.1066
 Quadrupole moment (field-independent basis, Debye-Ang):
   XX=            -28.9692   YY=            -19.4555   ZZ=            -22.6238
   XY=              2.1994   XZ=             -0.0277   YZ=              0.0346
 Traceless Quadrupole moment (field-independent basis, Debye-Ang):
   XX=             -5.2863   YY=              4.2273   ZZ=              1.0590
   XY=              2.1994   XZ=             -0.0277   YZ=              0.0346
 Octapole moment (field-independent basis, Debye-Ang**2):
  XXX=             11.9853  YYY=             -2.8619  ZZZ=              0.0193  XYY=             -1.8788
  XXY=              4.3967  XXZ=             -0.0067  XZZ=              2.0419  YZZ=             -1.2923
  YYZ=              0.0653  XYZ=             -0.0388
 Hexadecapole moment (field-independent basis, Debye-Ang**3):
 XXXX=           -221.2591 YYYY=            -72.0942 ZZZZ=            -19.4970 XXXY=             -1.0820
 XXXZ=             -0.0080 YYYX=              2.1363 YYYZ=              0.1093 ZZZX=              0.0127
 ZZZY=              0.0039 XXYY=            -40.9192 XXZZ=            -35.3693 YYZZ=            -16.6830
 XXYZ=              0.0805 YYXZ=             -0.0726 ZZXY=             -0.2031
 N-N= 1.066445576435D+02 E-N=-6.989976384543D+02  KE= 2.062045926165D+02
 1\1\GINC-NODE91\SP\RwB97X\6-31G(d)\C2H3N1O1\YANZ\05-Jun-2019\0\\# 6-31
 g(d) wb97x\\tmpdir/M2_ref_192.gjf\\0,1\C,0,4.694978,1.860366,13.479253
 \C,0,5.757091,2.720608,13.767767\N,0,5.965207,3.884381,13.154473\H,0,4
 .55922693,0.93027383,14.00034958\O,0,3.89578869,2.21015861,12.61205671
 \H,0,6.470246,2.471497,14.553239\H,0,5.35286161,4.13275974,12.49313049
 \\Version=ES64L-G16RevA.03\State=1-A\HF=-207.8646434\RMSD=7.877e-09\Di
 pole=0.1416324,-0.6217098,0.5294694\Quadrupole=-2.4008235,0.8977421,1.
 5030814,-2.4751891,-0.8814906,-2.0806665\PG=C01 [X(C2H3N1O1)]\\@


 I MET A TRAVELLER FROM AN ANTIQUE LAND
 WHO SAID... TWO VAST AND TRUNKLESS LEGS OF STONE
 STAND IN THE DESERT..... NEAR THEM,  ON THE SAND,
 HALF SUNK,  A SHATTERED VISAGE LIES,  WHOSE FROWN,
 AND WRINKLED LIP,  AND SNEER OF COLD COMMAND
 TELL THAT ITS SCULPTOR WELL THOSE PASSIONS READ
 WHICH YET SURVIVE,  STAMPED ON THESE LIFELESS THINGS
 THE HAND THAT MOCKED THEM,  AND THE HEART THAT FED-
 AND ON THE PEDESTAL THESE WORDS APPEAR 
 MY NAME IS OZYMANDIAS, KING OF KINGS--   
 LOOK ON MY WORKS YE MIGHTY AND DESPAIR. 
 NOTHING BESIDE REMAINS,  ROUND THE DECAY 
 OF THAT COLOSSAL WRECK,  BOUNDLESS AND BARE
 THE LONE AND LEVEL SANDS STRETCH FAR AWAY.
                                    SHELLEY
 Job cpu time:       0 days  0 hours  0 minutes 16.2 seconds.
 Elapsed time:       0 days  0 hours  0 minutes  8.2 seconds.
 File lengths (MBytes):  RWF=      6 Int=      0 D2E=      0 Chk=      1 Scr=      1
 Normal termination of Gaussian 16 at Wed Jun  5 16:58:52 2019.
