 Entering Gaussian System, Link 0=g16
 Initial command:
 /share/apps/gaussian/g16/l1.exe "/tmp/55477.mgr/Gau-317934.inp" -scrdir="/tmp/55477.mgr/"
 Entering Link 1 = /share/apps/gaussian/g16/l1.exe PID=    317935.
  
 Copyright (c) 1988,1990,1992,1993,1995,1998,2003,2009,2016,
            Gaussian, Inc.  All Rights Reserved.
  
 This is part of the Gaussian(R) 16 program.  It is based on
 the Gaussian(R) 09 system (copyright 2009, Gaussian, Inc.),
 the Gaussian(R) 03 system (copyright 2003, Gaussian, Inc.),
 the Gaussian(R) 98 system (copyright 1998, Gaussian, Inc.),
 the Gaussian(R) 94 system (copyright 1995, Gaussian, Inc.),
 the Gaussian 92(TM) system (copyright 1992, Gaussian, Inc.),
 the Gaussian 90(TM) system (copyright 1990, Gaussian, Inc.),
 the Gaussian 88(TM) system (copyright 1988, Gaussian, Inc.),
 the Gaussian 86(TM) system (copyright 1986, Carnegie Mellon
 University), and the Gaussian 82(TM) system (copyright 1983,
 Carnegie Mellon University). Gaussian is a federally registered
 trademark of Gaussian, Inc.
  
 This software contains proprietary and confidential information,
 including trade secrets, belonging to Gaussian, Inc.
  
 This software is provided under written license and may be
 used, copied, transmitted, or stored only in accord with that
 written license.
  
 The following legend is applicable only to US Government
 contracts under FAR:
  
                    RESTRICTED RIGHTS LEGEND
  
 Use, reproduction and disclosure by the US Government is
 subject to restrictions as set forth in subparagraphs (a)
 and (c) of the Commercial Computer Software - Restricted
 Rights clause in FAR 52.227-19.
  
 Gaussian, Inc.
 340 Quinnipiac St., Bldg. 40, Wallingford CT 06492
  
  
 ---------------------------------------------------------------
 Warning -- This program may not be used in any manner that
 competes with the business of Gaussian, Inc. or will provide
 assistance to any competitor of Gaussian, Inc.  The licensee
 of this program is prohibited from giving any competitor of
 Gaussian, Inc. access to this program.  By using this program,
 the user acknowledges that Gaussian, Inc. is engaged in the
 business of creating and licensing software in the field of
 computational chemistry and represents and warrants to the
 licensee that it is not a competitor of Gaussian, Inc. and that
 it will not use this program in any manner prohibited above.
 ---------------------------------------------------------------
  

 Cite this work as:
 Gaussian 16, Revision A.03,
 M. J. Frisch, G. W. Trucks, H. B. Schlegel, G. E. Scuseria, 
 M. A. Robb, J. R. Cheeseman, G. Scalmani, V. Barone, 
 G. A. Petersson, H. Nakatsuji, X. Li, M. Caricato, A. V. Marenich, 
 J. Bloino, B. G. Janesko, R. Gomperts, B. Mennucci, H. P. Hratchian, 
 J. V. Ortiz, A. F. Izmaylov, J. L. Sonnenberg, D. Williams-Young, 
 F. Ding, F. Lipparini, F. Egidi, J. Goings, B. Peng, A. Petrone, 
 T. Henderson, D. Ranasinghe, V. G. Zakrzewski, J. Gao, N. Rega, 
 G. Zheng, W. Liang, M. Hada, M. Ehara, K. Toyota, R. Fukuda, 
 J. Hasegawa, M. Ishida, T. Nakajima, Y. Honda, O. Kitao, H. Nakai, 
 T. Vreven, K. Throssell, J. A. Montgomery, Jr., J. E. Peralta, 
 F. Ogliaro, M. J. Bearpark, J. J. Heyd, E. N. Brothers, K. N. Kudin, 
 V. N. Staroverov, T. A. Keith, R. Kobayashi, J. Normand, 
 K. Raghavachari, A. P. Rendell, J. C. Burant, S. S. Iyengar, 
 J. Tomasi, M. Cossi, J. M. Millam, M. Klene, C. Adamo, R. Cammi, 
 J. W. Ochterski, R. L. Martin, K. Morokuma, O. Farkas, 
 J. B. Foresman, and D. J. Fox, Gaussian, Inc., Wallingford CT, 2016.
 
 ******************************************
 Gaussian 16:  ES64L-G16RevA.03 25-Dec-2016
                 5-Jun-2019 
 ******************************************
 %nprocshared=2
 Will use up to    2 processors via shared memory.
 %mem=2GB
 ----------------
 # 6-31g(d) wb97x
 ----------------
 1/38=1,172=1/1;
 2/12=2,17=6,18=5,40=1/2;
 3/5=1,6=6,7=1,11=2,25=1,30=1,74=-57/1,2,3;
 4//1;
 5/5=2,38=5/2;
 6/7=2,8=2,9=2,10=2,28=1/1;
 99/5=1,9=1/99;
 --------------------
 tmpdir/M2_ref_34.gjf
 --------------------
 Symbolic Z-matrix:
 Charge =  0 Multiplicity = 1
 C                    -6.01244   5.82644   8.04295 
 H                    -6.29645   5.62671   9.09586 
 H                    -6.35717   6.8631    7.70797 
 H                    -6.50293   5.07232   7.41594 
 H                    -4.9199    5.7323    7.94285 
 
                          Input orientation:                          
 ---------------------------------------------------------------------
 Center     Atomic      Atomic             Coordinates (Angstroms)
 Number     Number       Type             X           Y           Z
 ---------------------------------------------------------------------
      1          6           0       -6.012439    5.826435    8.042950
      2          1           0       -6.296451    5.626708    9.095864
      3          1           0       -6.357172    6.863095    7.707969
      4          1           0       -6.502930    5.072316    7.415941
      5          1           0       -4.919900    5.732297    7.942852
 ---------------------------------------------------------------------
                    Distance matrix (angstroms):
                    1          2          3          4          5
     1  C    0.000000
     2  H    1.108685   0.000000
     3  H    1.142680   1.859729   0.000000
     4  H    1.096548   1.781046   1.820279   0.000000
     5  H    1.101146   1.798743   1.843807   1.794211   0.000000
 Stoichiometry    CH4
 Framework group  C1[X(CH4)]
 Deg. of freedom     9
 Full point group                 C1      NOp   1
 Largest Abelian subgroup         C1      NOp   1
 Largest concise Abelian subgroup C1      NOp   1
                         Standard orientation:                         
 ---------------------------------------------------------------------
 Center     Atomic      Atomic             Coordinates (Angstroms)
 Number     Number       Type             X           Y           Z
 ---------------------------------------------------------------------
      1          6           0       -0.000335    0.002502   -0.001697
      2          1           0       -0.615523   -0.574932   -0.720929
      3          1           0        1.109892   -0.050137   -0.266918
      4          1           0       -0.146549   -0.437964    0.991796
      5          1           0       -0.345810    1.048020    0.006230
 ---------------------------------------------------------------------
 Rotational constants (GHZ):         156.8032374         150.7454637         148.5762341
 Standard basis: 6-31G(d) (6D, 7F)
 There are    23 symmetry adapted cartesian basis functions of A   symmetry.
 There are    23 symmetry adapted basis functions of A   symmetry.
    23 basis functions,    44 primitive gaussians,    23 cartesian basis functions
     5 alpha electrons        5 beta electrons
       nuclear repulsion energy        13.1698521221 Hartrees.
 NAtoms=    5 NActive=    5 NUniq=    5 SFac= 1.00D+00 NAtFMM=   60 NAOKFM=F Big=F
 Integral buffers will be    131072 words long.
 Raffenetti 2 integral format.
 Two-electron integral symmetry is turned on.
 One-electron integrals computed using PRISM.
 NBasis=    23 RedAO= T EigKep=  1.90D-02  NBF=    23
 NBsUse=    23 1.00D-06 EigRej= -1.00D+00 NBFU=    23
 ExpMin= 1.61D-01 ExpMax= 3.05D+03 ExpMxC= 4.57D+02 IAcc=3 IRadAn=         5 AccDes= 0.00D+00
 Harris functional with IExCor= 4538 and IRadAn=       5 diagonalized for initial guess.
 HarFok:  IExCor= 4538 AccDes= 0.00D+00 IRadAn=         5 IDoV= 1 UseB2=F ITyADJ=14
 ICtDFT=  3500011 ScaDFX=  1.000000  1.000000  1.000000  1.000000
 FoFCou: FMM=F IPFlag=           0 FMFlag=      100000 FMFlg1=           0
         NFxFlg=           0 DoJE=T BraDBF=F KetDBF=T FulRan=T
         wScrn=  0.000000 ICntrl=       500 IOpCl=  0 I1Cent=   200000004 NGrid=           0
         NMat0=    1 NMatS0=      1 NMatT0=    0 NMatD0=    1 NMtDS0=    0 NMtDT0=    0
 Petite list used in FoFCou.
 Keep R1 ints in memory in canonical form, NReq=1800744.
 Requested convergence on RMS density matrix=1.00D-08 within 128 cycles.
 Requested convergence on MAX density matrix=1.00D-06.
 Requested convergence on             energy=1.00D-06.
 No special actions if energy rises.
 Integral accuracy reduced to 1.0D-05 until final iterations.
 Initial convergence to 1.0D-05 achieved.  Increase integral accuracy.
 SCF Done:  E(RwB97X) =  -40.4976855472     A.U. after   11 cycles
            NFock= 11  Conv=0.19D-08     -V/T= 2.0134

 **********************************************************************

            Population analysis using the SCF density.

 **********************************************************************

 Orbital symmetries:
       Occupied  (A) (A) (A) (A) (A)
       Virtual   (A) (A) (A) (A) (A) (A) (A) (A) (A) (A) (A) (A)
                 (A) (A) (A) (A) (A) (A)
 The electronic state is 1-A.
 Alpha  occ. eigenvalues --  -10.25715  -0.81230  -0.49485  -0.49203  -0.48773
 Alpha virt. eigenvalues --    0.21083   0.26419   0.27061   0.27409   0.64009
 Alpha virt. eigenvalues --    0.64270   0.65604   0.98785   1.00669   1.01386
 Alpha virt. eigenvalues --    1.04993   1.20202   1.76023   1.76271   2.29821
 Alpha virt. eigenvalues --    2.34228   2.35264   4.29431
          Condensed to atoms (all electrons):
               1          2          3          4          5
     1  C    5.128224   0.382957   0.379839   0.383686   0.383980
     2  H    0.382957   0.523585  -0.020810  -0.026227  -0.024881
     3  H    0.379839  -0.020810   0.529460  -0.024084  -0.022211
     4  H    0.383686  -0.026227  -0.024084   0.523252  -0.024363
     5  H    0.383980  -0.024881  -0.022211  -0.024363   0.519710
 Mulliken charges:
               1
     1  C   -0.658685
     2  H    0.165377
     3  H    0.157806
     4  H    0.167737
     5  H    0.167765
 Sum of Mulliken charges =  -0.00000
 Mulliken charges with hydrogens summed into heavy atoms:
               1
     1  C   -0.000000
 Electronic spatial extent (au):  <R**2>=             36.1912
 Charge=             -0.0000 electrons
 Dipole moment (field-independent basis, Debye):
    X=             -0.0373    Y=             -0.0054    Z=              0.0271  Tot=              0.0464
 Quadrupole moment (field-independent basis, Debye-Ang):
   XX=             -8.2132   YY=             -8.3043   ZZ=             -8.3862
   XY=             -0.0022   XZ=              0.0152   YZ=             -0.0096
 Traceless Quadrupole moment (field-independent basis, Debye-Ang):
   XX=              0.0881   YY=             -0.0031   ZZ=             -0.0850
   XY=             -0.0022   XZ=              0.0152   YZ=             -0.0096
 Octapole moment (field-independent basis, Debye-Ang**2):
  XXX=              0.6846  YYY=              0.6574  ZZZ=              0.5112  XYY=             -0.5159
  XXY=             -0.1265  XXZ=             -0.4056  XZZ=             -0.3366  YZZ=             -0.5326
  YYZ=              0.0011  XYZ=             -0.1341
 Hexadecapole moment (field-independent basis, Debye-Ang**3):
 XXXX=            -15.6243 YYYY=            -15.2078 ZZZZ=            -15.2376 XXXY=              0.0227
 XXXZ=             -0.1896 YYYX=             -0.3086 YYYZ=              0.0471 ZZZX=              0.1080
 ZZZY=             -0.2610 XXYY=             -5.4108 XXZZ=             -5.3500 YYZZ=             -5.1541
 XXYZ=              0.1805 YYXZ=              0.1419 ZZXY=              0.2730
 N-N= 1.316985212213D+01 E-N=-1.192779880863D+02  KE= 3.996223492605D+01
 1\1\GINC-NODE91\SP\RwB97X\6-31G(d)\C1H4\YANZ\05-Jun-2019\0\\# 6-31g(d)
  wb97x\\tmpdir/M2_ref_34.gjf\\0,1\C,0,-6.012439,5.826435,8.04295\H,0,-
 6.296451,5.626708,9.095864\H,0,-6.35717163,6.86309548,7.7079694\H,0,-6
 .50293,5.072316,7.415941\H,0,-4.9199003,5.73229652,7.94285249\\Version
 =ES64L-G16RevA.03\State=1-A\HF=-40.4976855\RMSD=1.902e-09\Dipole=0.001
 0385,-0.0182268,-0.0007102\Quadrupole=0.0059737,0.0136896,-0.0196633,-
 0.0164992,0.0137219,-0.05964\PG=C01 [X(C1H4)]\\@


 ... I FELL INTO A REVERIE ... THE ATOMS WERE GAMBOLING BEFORE MY EYES
 ... I SAW HOW TWO SMALL ONES UNITED TO FORM A PAIR;
 HOW THE LARGER ONES SEIZED TWO OF THE SMALLER ONES;
 HOW STILL LARGER ONES KEPT HOLD OF THREE OR FOUR
 SMALLER ONES ... I SAW HOW THE LARGER ONES FORMED A CHAIN ...
 THIS WAS THE ORIGIN OF THE STRUCTURE THEORY.

                                   -- C.F.KEKULE VON STRADONITZ
 Job cpu time:       0 days  0 hours  0 minutes  5.4 seconds.
 Elapsed time:       0 days  0 hours  0 minutes  2.8 seconds.
 File lengths (MBytes):  RWF=      6 Int=      0 D2E=      0 Chk=      1 Scr=      1
 Normal termination of Gaussian 16 at Wed Jun  5 16:57:18 2019.
