 Entering Gaussian System, Link 0=g16
 Initial command:
 /share/apps/gaussian/g16/l1.exe "/tmp/55477.mgr/Gau-319164.inp" -scrdir="/tmp/55477.mgr/"
 Entering Link 1 = /share/apps/gaussian/g16/l1.exe PID=    319165.
  
 Copyright (c) 1988,1990,1992,1993,1995,1998,2003,2009,2016,
            Gaussian, Inc.  All Rights Reserved.
  
 This is part of the Gaussian(R) 16 program.  It is based on
 the Gaussian(R) 09 system (copyright 2009, Gaussian, Inc.),
 the Gaussian(R) 03 system (copyright 2003, Gaussian, Inc.),
 the Gaussian(R) 98 system (copyright 1998, Gaussian, Inc.),
 the Gaussian(R) 94 system (copyright 1995, Gaussian, Inc.),
 the Gaussian 92(TM) system (copyright 1992, Gaussian, Inc.),
 the Gaussian 90(TM) system (copyright 1990, Gaussian, Inc.),
 the Gaussian 88(TM) system (copyright 1988, Gaussian, Inc.),
 the Gaussian 86(TM) system (copyright 1986, Carnegie Mellon
 University), and the Gaussian 82(TM) system (copyright 1983,
 Carnegie Mellon University). Gaussian is a federally registered
 trademark of Gaussian, Inc.
  
 This software contains proprietary and confidential information,
 including trade secrets, belonging to Gaussian, Inc.
  
 This software is provided under written license and may be
 used, copied, transmitted, or stored only in accord with that
 written license.
  
 The following legend is applicable only to US Government
 contracts under FAR:
  
                    RESTRICTED RIGHTS LEGEND
  
 Use, reproduction and disclosure by the US Government is
 subject to restrictions as set forth in subparagraphs (a)
 and (c) of the Commercial Computer Software - Restricted
 Rights clause in FAR 52.227-19.
  
 Gaussian, Inc.
 340 Quinnipiac St., Bldg. 40, Wallingford CT 06492
  
  
 ---------------------------------------------------------------
 Warning -- This program may not be used in any manner that
 competes with the business of Gaussian, Inc. or will provide
 assistance to any competitor of Gaussian, Inc.  The licensee
 of this program is prohibited from giving any competitor of
 Gaussian, Inc. access to this program.  By using this program,
 the user acknowledges that Gaussian, Inc. is engaged in the
 business of creating and licensing software in the field of
 computational chemistry and represents and warrants to the
 licensee that it is not a competitor of Gaussian, Inc. and that
 it will not use this program in any manner prohibited above.
 ---------------------------------------------------------------
  

 Cite this work as:
 Gaussian 16, Revision A.03,
 M. J. Frisch, G. W. Trucks, H. B. Schlegel, G. E. Scuseria, 
 M. A. Robb, J. R. Cheeseman, G. Scalmani, V. Barone, 
 G. A. Petersson, H. Nakatsuji, X. Li, M. Caricato, A. V. Marenich, 
 J. Bloino, B. G. Janesko, R. Gomperts, B. Mennucci, H. P. Hratchian, 
 J. V. Ortiz, A. F. Izmaylov, J. L. Sonnenberg, D. Williams-Young, 
 F. Ding, F. Lipparini, F. Egidi, J. Goings, B. Peng, A. Petrone, 
 T. Henderson, D. Ranasinghe, V. G. Zakrzewski, J. Gao, N. Rega, 
 G. Zheng, W. Liang, M. Hada, M. Ehara, K. Toyota, R. Fukuda, 
 J. Hasegawa, M. Ishida, T. Nakajima, Y. Honda, O. Kitao, H. Nakai, 
 T. Vreven, K. Throssell, J. A. Montgomery, Jr., J. E. Peralta, 
 F. Ogliaro, M. J. Bearpark, J. J. Heyd, E. N. Brothers, K. N. Kudin, 
 V. N. Staroverov, T. A. Keith, R. Kobayashi, J. Normand, 
 K. Raghavachari, A. P. Rendell, J. C. Burant, S. S. Iyengar, 
 J. Tomasi, M. Cossi, J. M. Millam, M. Klene, C. Adamo, R. Cammi, 
 J. W. Ochterski, R. L. Martin, K. Morokuma, O. Farkas, 
 J. B. Foresman, and D. J. Fox, Gaussian, Inc., Wallingford CT, 2016.
 
 ******************************************
 Gaussian 16:  ES64L-G16RevA.03 25-Dec-2016
                 5-Jun-2019 
 ******************************************
 %nprocshared=2
 Will use up to    2 processors via shared memory.
 %mem=2GB
 ----------------
 # 6-31g(d) wb97x
 ----------------
 1/38=1,172=1/1;
 2/12=2,17=6,18=5,40=1/2;
 3/5=1,6=6,7=1,11=2,25=1,30=1,74=-57/1,2,3;
 4//1;
 5/5=2,38=5/2;
 6/7=2,8=2,9=2,10=2,28=1/1;
 99/5=1,9=1/99;
 ---------------------
 tmpdir/M2_ref_150.gjf
 ---------------------
 Symbolic Z-matrix:
 Charge =  0 Multiplicity = 1
 N                     3.26303   0.07821   14.20876 
 C                     3.07472  -1.07368   14.84766 
 N                     4.01333  -1.78954   15.49762 
 H                     4.13436   0.42641   14.202 
 H                     2.09593  -1.52743   14.89004 
 O                     5.07977  -1.34745   15.47206 
 
                          Input orientation:                          
 ---------------------------------------------------------------------
 Center     Atomic      Atomic             Coordinates (Angstroms)
 Number     Number       Type             X           Y           Z
 ---------------------------------------------------------------------
      1          7           0        3.263032    0.078208   14.208759
      2          6           0        3.074716   -1.073680   14.847659
      3          7           0        4.013328   -1.789540   15.497620
      4          1           0        4.134358    0.426411   14.202005
      5          1           0        2.095926   -1.527427   14.890045
      6          8           0        5.079773   -1.347451   15.472064
 ---------------------------------------------------------------------
                    Distance matrix (angstroms):
                    1          2          3          4          5
     1  N    0.000000
     2  C    1.330602   0.000000
     3  N    2.390102   1.347552   0.000000
     4  H    0.938349   1.946787   2.569767   0.000000
     5  H    2.098655   1.079682   2.028370   2.906215   0.000000
     6  O    2.632298   2.117802   1.154730   2.377697   3.045404
                    6
     6  O    0.000000
 Stoichiometry    CH2N2O
 Framework group  C1[X(CH2N2O)]
 Deg. of freedom    12
 Full point group                 C1      NOp   1
 Largest Abelian subgroup         C1      NOp   1
 Largest concise Abelian subgroup C1      NOp   1
                         Standard orientation:                         
 ---------------------------------------------------------------------
 Center     Atomic      Atomic             Coordinates (Angstroms)
 Number     Number       Type             X           Y           Z
 ---------------------------------------------------------------------
      1          7           0       -1.402416   -0.461393   -0.001223
      2          6           0       -0.574503    0.580263    0.002526
      3          7           0        0.772118    0.530567   -0.003856
      4          1           0       -1.014996   -1.316031   -0.001720
      5          1           0       -0.957802    1.589613    0.005204
      6          8           0        1.228987   -0.529922    0.002114
 ---------------------------------------------------------------------
 Rotational constants (GHZ):          25.5947323           7.6680458           5.9003917
 Standard basis: 6-31G(d) (6D, 7F)
 There are    64 symmetry adapted cartesian basis functions of A   symmetry.
 There are    64 symmetry adapted basis functions of A   symmetry.
    64 basis functions,   120 primitive gaussians,    64 cartesian basis functions
    15 alpha electrons       15 beta electrons
       nuclear repulsion energy       109.8646409812 Hartrees.
 NAtoms=    6 NActive=    6 NUniq=    6 SFac= 1.00D+00 NAtFMM=   60 NAOKFM=F Big=F
 Integral buffers will be    131072 words long.
 Raffenetti 2 integral format.
 Two-electron integral symmetry is turned on.
 One-electron integrals computed using PRISM.
 NBasis=    64 RedAO= T EigKep=  2.99D-03  NBF=    64
 NBsUse=    64 1.00D-06 EigRej= -1.00D+00 NBFU=    64
 ExpMin= 1.61D-01 ExpMax= 5.48D+03 ExpMxC= 8.25D+02 IAcc=3 IRadAn=         5 AccDes= 0.00D+00
 Harris functional with IExCor= 4538 and IRadAn=       5 diagonalized for initial guess.
 HarFok:  IExCor= 4538 AccDes= 0.00D+00 IRadAn=         5 IDoV= 1 UseB2=F ITyADJ=14
 ICtDFT=  3500011 ScaDFX=  1.000000  1.000000  1.000000  1.000000
 FoFCou: FMM=F IPFlag=           0 FMFlag=      100000 FMFlg1=           0
         NFxFlg=           0 DoJE=T BraDBF=F KetDBF=T FulRan=T
         wScrn=  0.000000 ICntrl=       500 IOpCl=  0 I1Cent=   200000004 NGrid=           0
         NMat0=    1 NMatS0=      1 NMatT0=    0 NMatD0=    1 NMtDS0=    0 NMtDT0=    0
 Petite list used in FoFCou.
 Keep R1 ints in memory in canonical form, NReq=6104720.
 Requested convergence on RMS density matrix=1.00D-08 within 128 cycles.
 Requested convergence on MAX density matrix=1.00D-06.
 Requested convergence on             energy=1.00D-06.
 No special actions if energy rises.
 Integral accuracy reduced to 1.0D-05 until final iterations.
 Initial convergence to 1.0D-05 achieved.  Increase integral accuracy.
 SCF Done:  E(RwB97X) =  -223.823524953     A.U. after   22 cycles
            NFock= 22  Conv=0.44D-08     -V/T= 2.0066

 **********************************************************************

            Population analysis using the SCF density.

 **********************************************************************

 Orbital symmetries:
       Occupied  (A) (A) (A) (A) (A) (A) (A) (A) (A) (A) (A) (A)
                 (A) (A) (A)
       Virtual   (A) (A) (A) (A) (A) (A) (A) (A) (A) (A) (A) (A)
                 (A) (A) (A) (A) (A) (A) (A) (A) (A) (A) (A) (A)
                 (A) (A) (A) (A) (A) (A) (A) (A) (A) (A) (A) (A)
                 (A) (A) (A) (A) (A) (A) (A) (A) (A) (A) (A) (A)
                 (A)
 The electronic state is 1-A.
 Alpha  occ. eigenvalues --  -19.30154 -14.53417 -14.44574 -10.36189  -1.35819
 Alpha  occ. eigenvalues --   -1.06337  -0.93115  -0.73321  -0.67216  -0.63587
 Alpha  occ. eigenvalues --   -0.62254  -0.53698  -0.44537  -0.42276  -0.34175
 Alpha virt. eigenvalues --   -0.04840   0.12623   0.21798   0.24653   0.35716
 Alpha virt. eigenvalues --    0.37446   0.52523   0.62615   0.65970   0.68665
 Alpha virt. eigenvalues --    0.77775   0.79110   0.79685   0.80787   0.85076
 Alpha virt. eigenvalues --    0.85422   0.93762   0.97738   1.03592   1.04698
 Alpha virt. eigenvalues --    1.12150   1.16876   1.27915   1.39188   1.40234
 Alpha virt. eigenvalues --    1.50163   1.53153   1.66394   1.76553   1.79849
 Alpha virt. eigenvalues --    1.85653   1.89454   1.91818   2.11180   2.13886
 Alpha virt. eigenvalues --    2.33455   2.39017   2.51096   2.52854   2.67876
 Alpha virt. eigenvalues --    2.70386   2.77437   2.88466   2.97740   3.18504
 Alpha virt. eigenvalues --    3.74996   3.84021   3.93563   4.30617
          Condensed to atoms (all electrons):
               1          2          3          4          5          6
     1  N    6.696721   0.579353  -0.058623   0.298918  -0.037660  -0.014377
     2  C    0.579353   4.828285   0.250088  -0.054082   0.385425  -0.088172
     3  N   -0.058623   0.250088   6.569836  -0.018256  -0.061988   0.257291
     4  H    0.298918  -0.054082  -0.018256   0.399082   0.005647   0.024940
     5  H   -0.037660   0.385425  -0.061988   0.005647   0.498781   0.005400
     6  O   -0.014377  -0.088172   0.257291   0.024940   0.005400   8.059488
 Mulliken charges:
               1
     1  N   -0.464332
     2  C    0.099103
     3  N    0.061652
     4  H    0.343751
     5  H    0.204395
     6  O   -0.244569
 Sum of Mulliken charges =  -0.00000
 Mulliken charges with hydrogens summed into heavy atoms:
               1
     1  N   -0.120581
     2  C    0.303498
     3  N    0.061652
     6  O   -0.244569
 Electronic spatial extent (au):  <R**2>=            215.9225
 Charge=             -0.0000 electrons
 Dipole moment (field-independent basis, Debye):
    X=             -0.3044    Y=              0.1952    Z=              0.0094  Tot=              0.3617
 Quadrupole moment (field-independent basis, Debye-Ang):
   XX=            -28.6157   YY=            -19.7828   ZZ=            -21.3738
   XY=             -0.7661   XZ=              0.0122   YZ=              0.0324
 Traceless Quadrupole moment (field-independent basis, Debye-Ang):
   XX=             -5.3582   YY=              3.4746   ZZ=              1.8836
   XY=             -0.7661   XZ=              0.0122   YZ=              0.0324
 Octapole moment (field-independent basis, Debye-Ang**2):
  XXX=             11.5365  YYY=             -4.2491  ZZZ=              0.0042  XYY=             -4.0620
  XXY=              0.3307  XXZ=              0.0373  XZZ=              2.7378  YZZ=             -1.0838
  YYZ=              0.0206  XYZ=              0.0186
 Hexadecapole moment (field-independent basis, Debye-Ang**3):
 XXXX=           -198.1102 YYYY=            -61.1978 ZZZZ=            -17.5245 XXXY=             -5.5209
 XXXZ=              0.0328 YYYX=             -2.4947 YYYZ=              0.0580 ZZZX=              0.0226
 ZZZY=              0.0095 XXYY=            -38.7450 XXZZ=            -31.0408 YYZZ=            -14.2896
 XXYZ=              0.0291 YYXZ=              0.0132 ZZXY=             -0.3980
 N-N= 1.098646409812D+02 E-N=-7.434361192794D+02  KE= 2.223463734470D+02
 1\1\GINC-NODE91\SP\RwB97X\6-31G(d)\C1H2N2O1\YANZ\05-Jun-2019\0\\# 6-31
 g(d) wb97x\\tmpdir/M2_ref_150.gjf\\0,1\N,0,3.263032,0.078208,14.208759
 \C,0,3.074716,-1.07368,14.847659\N,0,4.013328,-1.78954,15.49762\H,0,4.
 13435769,0.42641059,14.20200498\H,0,2.09592558,-1.52742686,14.89004464
 \O,0,5.07977315,-1.34745124,15.47206368\\Version=ES64L-G16RevA.03\Stat
 e=1-A\HF=-223.823525\RMSD=4.404e-09\Dipole=-0.1346196,0.0143115,-0.043
 8652\Quadrupole=0.1203033,-0.1613191,0.0410159,2.6039743,-1.8330822,1.
 5541835\PG=C01 [X(C1H2N2O1)]\\@


 IN THE WOODS WE RETURN TO REASON AND FAITH.

                                 -- EMERSON
 Job cpu time:       0 days  0 hours  0 minutes 19.3 seconds.
 Elapsed time:       0 days  0 hours  0 minutes  9.8 seconds.
 File lengths (MBytes):  RWF=      6 Int=      0 D2E=      0 Chk=      1 Scr=      1
 Normal termination of Gaussian 16 at Wed Jun  5 16:58:18 2019.
