 Entering Gaussian System, Link 0=g16
 Initial command:
 /share/apps/gaussian/g16/l1.exe "/tmp/55477.mgr/Gau-318469.inp" -scrdir="/tmp/55477.mgr/"
 Entering Link 1 = /share/apps/gaussian/g16/l1.exe PID=    318471.
  
 Copyright (c) 1988,1990,1992,1993,1995,1998,2003,2009,2016,
            Gaussian, Inc.  All Rights Reserved.
  
 This is part of the Gaussian(R) 16 program.  It is based on
 the Gaussian(R) 09 system (copyright 2009, Gaussian, Inc.),
 the Gaussian(R) 03 system (copyright 2003, Gaussian, Inc.),
 the Gaussian(R) 98 system (copyright 1998, Gaussian, Inc.),
 the Gaussian(R) 94 system (copyright 1995, Gaussian, Inc.),
 the Gaussian 92(TM) system (copyright 1992, Gaussian, Inc.),
 the Gaussian 90(TM) system (copyright 1990, Gaussian, Inc.),
 the Gaussian 88(TM) system (copyright 1988, Gaussian, Inc.),
 the Gaussian 86(TM) system (copyright 1986, Carnegie Mellon
 University), and the Gaussian 82(TM) system (copyright 1983,
 Carnegie Mellon University). Gaussian is a federally registered
 trademark of Gaussian, Inc.
  
 This software contains proprietary and confidential information,
 including trade secrets, belonging to Gaussian, Inc.
  
 This software is provided under written license and may be
 used, copied, transmitted, or stored only in accord with that
 written license.
  
 The following legend is applicable only to US Government
 contracts under FAR:
  
                    RESTRICTED RIGHTS LEGEND
  
 Use, reproduction and disclosure by the US Government is
 subject to restrictions as set forth in subparagraphs (a)
 and (c) of the Commercial Computer Software - Restricted
 Rights clause in FAR 52.227-19.
  
 Gaussian, Inc.
 340 Quinnipiac St., Bldg. 40, Wallingford CT 06492
  
  
 ---------------------------------------------------------------
 Warning -- This program may not be used in any manner that
 competes with the business of Gaussian, Inc. or will provide
 assistance to any competitor of Gaussian, Inc.  The licensee
 of this program is prohibited from giving any competitor of
 Gaussian, Inc. access to this program.  By using this program,
 the user acknowledges that Gaussian, Inc. is engaged in the
 business of creating and licensing software in the field of
 computational chemistry and represents and warrants to the
 licensee that it is not a competitor of Gaussian, Inc. and that
 it will not use this program in any manner prohibited above.
 ---------------------------------------------------------------
  

 Cite this work as:
 Gaussian 16, Revision A.03,
 M. J. Frisch, G. W. Trucks, H. B. Schlegel, G. E. Scuseria, 
 M. A. Robb, J. R. Cheeseman, G. Scalmani, V. Barone, 
 G. A. Petersson, H. Nakatsuji, X. Li, M. Caricato, A. V. Marenich, 
 J. Bloino, B. G. Janesko, R. Gomperts, B. Mennucci, H. P. Hratchian, 
 J. V. Ortiz, A. F. Izmaylov, J. L. Sonnenberg, D. Williams-Young, 
 F. Ding, F. Lipparini, F. Egidi, J. Goings, B. Peng, A. Petrone, 
 T. Henderson, D. Ranasinghe, V. G. Zakrzewski, J. Gao, N. Rega, 
 G. Zheng, W. Liang, M. Hada, M. Ehara, K. Toyota, R. Fukuda, 
 J. Hasegawa, M. Ishida, T. Nakajima, Y. Honda, O. Kitao, H. Nakai, 
 T. Vreven, K. Throssell, J. A. Montgomery, Jr., J. E. Peralta, 
 F. Ogliaro, M. J. Bearpark, J. J. Heyd, E. N. Brothers, K. N. Kudin, 
 V. N. Staroverov, T. A. Keith, R. Kobayashi, J. Normand, 
 K. Raghavachari, A. P. Rendell, J. C. Burant, S. S. Iyengar, 
 J. Tomasi, M. Cossi, J. M. Millam, M. Klene, C. Adamo, R. Cammi, 
 J. W. Ochterski, R. L. Martin, K. Morokuma, O. Farkas, 
 J. B. Foresman, and D. J. Fox, Gaussian, Inc., Wallingford CT, 2016.
 
 ******************************************
 Gaussian 16:  ES64L-G16RevA.03 25-Dec-2016
                 5-Jun-2019 
 ******************************************
 %nprocshared=2
 Will use up to    2 processors via shared memory.
 %mem=2GB
 ----------------
 # 6-31g(d) wb97x
 ----------------
 1/38=1,172=1/1;
 2/12=2,17=6,18=5,40=1/2;
 3/5=1,6=6,7=1,11=2,25=1,30=1,74=-57/1,2,3;
 4//1;
 5/5=2,38=5/2;
 6/7=2,8=2,9=2,10=2,28=1/1;
 99/5=1,9=1/99;
 --------------------
 tmpdir/M2_ref_87.gjf
 --------------------
 Symbolic Z-matrix:
 Charge =  0 Multiplicity = 1
 C                    -0.76388   4.67246   8.92584 
 C                    -0.25734   3.59727   9.64421 
 C                    -0.87166   3.18958   10.82761 
 O                    -1.74417   5.2946    9.33178 
 H                    -0.28814   4.96982   7.99315 
 H                     0.6155    3.05146   9.29743 
 H                    -1.67672   3.70009   11.16524 
 H                    -0.43468   2.34186   11.35068 
 
                          Input orientation:                          
 ---------------------------------------------------------------------
 Center     Atomic      Atomic             Coordinates (Angstroms)
 Number     Number       Type             X           Y           Z
 ---------------------------------------------------------------------
      1          6           0       -0.763877    4.672461    8.925844
      2          6           0       -0.257341    3.597273    9.644210
      3          6           0       -0.871664    3.189582   10.827610
      4          8           0       -1.744173    5.294601    9.331779
      5          1           0       -0.288137    4.969819    7.993150
      6          1           0        0.615499    3.051459    9.297431
      7          1           0       -1.676724    3.700089   11.165241
      8          1           0       -0.434681    2.341862   11.350685
 ---------------------------------------------------------------------
                    Distance matrix (angstroms):
                    1          2          3          4          5
     1  C    0.000000
     2  C    1.388761   0.000000
     3  C    2.413972   1.394288   0.000000
     4  O    1.229968   2.277983   2.725782   0.000000
     5  H    1.088425   2.147284   3.397633   2.004358   0.000000
     6  H    2.160649   1.086286   2.138266   3.255905   2.489541
     7  H    2.606472   2.082968   1.011303   2.430761   3.688163
     8  H    3.379337   2.125927   1.087746   3.809123   4.266225
                    6          7          8
     6  H    0.000000
     7  H    3.027164   0.000000
     8  H    2.412936   1.849823   0.000000
 Stoichiometry    C3H4O
 Framework group  C1[X(C3H4O)]
 Deg. of freedom    18
 Full point group                 C1      NOp   1
 Largest Abelian subgroup         C1      NOp   1
 Largest concise Abelian subgroup C1      NOp   1
                         Standard orientation:                         
 ---------------------------------------------------------------------
 Center     Atomic      Atomic             Coordinates (Angstroms)
 Number     Number       Type             X           Y           Z
 ---------------------------------------------------------------------
      1          6           0        0.791607    0.483845    0.003781
      2          6           0       -0.588824    0.635477   -0.004873
      3          6           0       -1.419817   -0.484072    0.005187
      4          8           0        1.301753   -0.635318   -0.003089
      5          1           0        1.430705    1.364800    0.015657
      6          1           0       -1.045460    1.621104   -0.011297
      7          1           0       -1.003680   -1.405758   -0.002383
      8          1           0       -2.493376   -0.309105   -0.001835
 ---------------------------------------------------------------------
 Rotational constants (GHZ):          21.5979184           6.8887565           5.2230305
 Standard basis: 6-31G(d) (6D, 7F)
 There are    68 symmetry adapted cartesian basis functions of A   symmetry.
 There are    68 symmetry adapted basis functions of A   symmetry.
    68 basis functions,   128 primitive gaussians,    68 cartesian basis functions
    15 alpha electrons       15 beta electrons
       nuclear repulsion energy       106.2598936599 Hartrees.
 NAtoms=    8 NActive=    8 NUniq=    8 SFac= 1.00D+00 NAtFMM=   60 NAOKFM=F Big=F
 Integral buffers will be    131072 words long.
 Raffenetti 2 integral format.
 Two-electron integral symmetry is turned on.
 One-electron integrals computed using PRISM.
 NBasis=    68 RedAO= T EigKep=  2.82D-03  NBF=    68
 NBsUse=    68 1.00D-06 EigRej= -1.00D+00 NBFU=    68
 ExpMin= 1.61D-01 ExpMax= 5.48D+03 ExpMxC= 8.25D+02 IAcc=3 IRadAn=         5 AccDes= 0.00D+00
 Harris functional with IExCor= 4538 and IRadAn=       5 diagonalized for initial guess.
 HarFok:  IExCor= 4538 AccDes= 0.00D+00 IRadAn=         5 IDoV= 1 UseB2=F ITyADJ=14
 ICtDFT=  3500011 ScaDFX=  1.000000  1.000000  1.000000  1.000000
 FoFCou: FMM=F IPFlag=           0 FMFlag=      100000 FMFlg1=           0
         NFxFlg=           0 DoJE=T BraDBF=F KetDBF=T FulRan=T
         wScrn=  0.000000 ICntrl=       500 IOpCl=  0 I1Cent=   200000004 NGrid=           0
         NMat0=    1 NMatS0=      1 NMatT0=    0 NMatD0=    1 NMtDS0=    0 NMtDT0=    0
 Petite list used in FoFCou.
 Keep R1 ints in memory in canonical form, NReq=7290824.
 Requested convergence on RMS density matrix=1.00D-08 within 128 cycles.
 Requested convergence on MAX density matrix=1.00D-06.
 Requested convergence on             energy=1.00D-06.
 No special actions if energy rises.
 Integral accuracy reduced to 1.0D-05 until final iterations.
 Initial convergence to 1.0D-05 achieved.  Increase integral accuracy.
 SCF Done:  E(RwB97X) =  -191.837062940     A.U. after   15 cycles
            NFock= 15  Conv=0.47D-08     -V/T= 2.0083

 **********************************************************************

            Population analysis using the SCF density.

 **********************************************************************

 Orbital symmetries:
       Occupied  (A) (A) (A) (A) (A) (A) (A) (A) (A) (A) (A) (A)
                 (A) (A) (A)
       Virtual   (A) (A) (A) (A) (A) (A) (A) (A) (A) (A) (A) (A)
                 (A) (A) (A) (A) (A) (A) (A) (A) (A) (A) (A) (A)
                 (A) (A) (A) (A) (A) (A) (A) (A) (A) (A) (A) (A)
                 (A) (A) (A) (A) (A) (A) (A) (A) (A) (A) (A) (A)
                 (A) (A) (A) (A) (A)
 The electronic state is 1-A.
 Alpha  occ. eigenvalues --  -19.20482 -10.35056 -10.30083 -10.28719  -1.15743
 Alpha  occ. eigenvalues --   -0.92333  -0.79598  -0.66446  -0.63536  -0.55508
 Alpha  occ. eigenvalues --   -0.52367  -0.50467  -0.49380  -0.37051  -0.35706
 Alpha virt. eigenvalues --    0.00963   0.17431   0.20170   0.23896   0.26958
 Alpha virt. eigenvalues --    0.30418   0.34819   0.40913   0.46477   0.61980
 Alpha virt. eigenvalues --    0.63186   0.68524   0.68806   0.70673   0.74448
 Alpha virt. eigenvalues --    0.75251   0.80325   0.92675   0.96281   0.97676
 Alpha virt. eigenvalues --    0.98699   1.03452   1.08556   1.10872   1.21066
 Alpha virt. eigenvalues --    1.22852   1.25248   1.40796   1.43387   1.52118
 Alpha virt. eigenvalues --    1.64932   1.65611   1.75411   1.87473   1.95014
 Alpha virt. eigenvalues --    1.95601   2.05865   2.06659   2.18477   2.32672
 Alpha virt. eigenvalues --    2.33519   2.41148   2.42769   2.63178   2.65214
 Alpha virt. eigenvalues --    2.73449   2.88707   3.02443   3.20092   3.97061
 Alpha virt. eigenvalues --    4.21368   4.28116   4.51430
          Condensed to atoms (all electrons):
               1          2          3          4          5          6
     1  C    4.558772   0.331974  -0.027091   0.572303   0.381225  -0.025343
     2  C    0.331974   5.211584   0.584166  -0.104503  -0.114156   0.358561
     3  C   -0.027091   0.584166   5.017457  -0.002853   0.007578  -0.037971
     4  O    0.572303  -0.104503  -0.002853   7.988793  -0.054936   0.003206
     5  H    0.381225  -0.114156   0.007578  -0.054936   0.643018   0.001698
     6  H   -0.025343   0.358561  -0.037971   0.003206   0.001698   0.530479
     7  H   -0.008304  -0.037959   0.386023   0.015800   0.000567   0.003947
     8  H    0.003925  -0.033112   0.370555   0.000593  -0.000037  -0.003537
               7          8
     1  C   -0.008304   0.003925
     2  C   -0.037959  -0.033112
     3  C    0.386023   0.370555
     4  O    0.015800   0.000593
     5  H    0.000567  -0.000037
     6  H    0.003947  -0.003537
     7  H    0.450559  -0.025072
     8  H   -0.025072   0.504852
 Mulliken charges:
               1
     1  C    0.212540
     2  C   -0.196554
     3  C   -0.297864
     4  O   -0.418402
     5  H    0.135045
     6  H    0.168961
     7  H    0.214441
     8  H    0.181833
 Sum of Mulliken charges =  -0.00000
 Mulliken charges with hydrogens summed into heavy atoms:
               1
     1  C    0.347585
     2  C   -0.027593
     3  C    0.098410
     4  O   -0.418402
 Electronic spatial extent (au):  <R**2>=            254.7463
 Charge=             -0.0000 electrons
 Dipole moment (field-independent basis, Debye):
    X=             -2.1811    Y=              1.7252    Z=              0.0050  Tot=              2.7809
 Quadrupole moment (field-independent basis, Debye-Ang):
   XX=            -23.2655   YY=            -21.8556   ZZ=            -24.3059
   XY=              3.0241   XZ=              0.0301   YZ=             -0.0058
 Traceless Quadrupole moment (field-independent basis, Debye-Ang):
   XX=             -0.1231   YY=              1.2867   ZZ=             -1.1636
   XY=              3.0241   XZ=              0.0301   YZ=             -0.0058
 Octapole moment (field-independent basis, Debye-Ang**2):
  XXX=             -5.6764  YYY=             -0.9419  ZZZ=             -0.0157  XYY=             -0.3279
  XXY=              2.5428  XXZ=             -0.0240  XZZ=              3.2806  YZZ=             -1.1274
  YYZ=             -0.0267  XYZ=              0.0093
 Hexadecapole moment (field-independent basis, Debye-Ang**3):
 XXXX=           -200.9958 YYYY=            -82.8353 ZZZZ=            -22.6450 XXXY=              3.4726
 XXXZ=              0.0948 YYYX=             -1.5162 YYYZ=              0.0014 ZZZX=             -0.0034
 ZZZY=              0.0126 XXYY=            -48.8897 XXZZ=            -40.6305 YYZZ=            -18.9947
 XXYZ=              0.0185 YYXZ=              0.0628 ZZXY=             -0.6623
 N-N= 1.062598936599D+02 E-N=-6.600201495343D+02  KE= 1.902551434062D+02
 1\1\GINC-NODE91\SP\RwB97X\6-31G(d)\C3H4O1\YANZ\05-Jun-2019\0\\# 6-31g(
 d) wb97x\\tmpdir/M2_ref_87.gjf\\0,1\C,0,-0.763877,4.672461,8.925844\C,
 0,-0.257341,3.597273,9.64421\C,0,-0.871664,3.189582,10.82761\O,0,-1.74
 417316,5.29460066,9.3317788\H,0,-0.288137,4.969819,7.99315\H,0,0.61549
 9,3.051459,9.297431\H,0,-1.6767244,3.70008885,11.16524056\H,0,-0.43468
 081,2.34186155,11.35068496\\Version=ES64L-G16RevA.03\State=1-A\HF=-191
 .8370629\RMSD=4.745e-09\Dipole=0.7498217,-0.7930777,0.076514\Quadrupol
 e=-0.7120937,-1.0659536,1.7780473,0.9629964,-1.3147612,-0.9127374\PG=C
 01 [X(C3H4O1)]\\@


 THERE'S NOTHING SO GREAT AS THE GREAT OUTDOORS.

                                       -- ZIGGY
 Job cpu time:       0 days  0 hours  0 minutes 18.8 seconds.
 Elapsed time:       0 days  0 hours  0 minutes  9.5 seconds.
 File lengths (MBytes):  RWF=      6 Int=      0 D2E=      0 Chk=      1 Scr=      1
 Normal termination of Gaussian 16 at Wed Jun  5 16:57:47 2019.
