 Entering Gaussian System, Link 0=g16
 Initial command:
 /share/apps/gaussian/g16/l1.exe "/tmp/55477.mgr/Gau-319073.inp" -scrdir="/tmp/55477.mgr/"
 Entering Link 1 = /share/apps/gaussian/g16/l1.exe PID=    319074.
  
 Copyright (c) 1988,1990,1992,1993,1995,1998,2003,2009,2016,
            Gaussian, Inc.  All Rights Reserved.
  
 This is part of the Gaussian(R) 16 program.  It is based on
 the Gaussian(R) 09 system (copyright 2009, Gaussian, Inc.),
 the Gaussian(R) 03 system (copyright 2003, Gaussian, Inc.),
 the Gaussian(R) 98 system (copyright 1998, Gaussian, Inc.),
 the Gaussian(R) 94 system (copyright 1995, Gaussian, Inc.),
 the Gaussian 92(TM) system (copyright 1992, Gaussian, Inc.),
 the Gaussian 90(TM) system (copyright 1990, Gaussian, Inc.),
 the Gaussian 88(TM) system (copyright 1988, Gaussian, Inc.),
 the Gaussian 86(TM) system (copyright 1986, Carnegie Mellon
 University), and the Gaussian 82(TM) system (copyright 1983,
 Carnegie Mellon University). Gaussian is a federally registered
 trademark of Gaussian, Inc.
  
 This software contains proprietary and confidential information,
 including trade secrets, belonging to Gaussian, Inc.
  
 This software is provided under written license and may be
 used, copied, transmitted, or stored only in accord with that
 written license.
  
 The following legend is applicable only to US Government
 contracts under FAR:
  
                    RESTRICTED RIGHTS LEGEND
  
 Use, reproduction and disclosure by the US Government is
 subject to restrictions as set forth in subparagraphs (a)
 and (c) of the Commercial Computer Software - Restricted
 Rights clause in FAR 52.227-19.
  
 Gaussian, Inc.
 340 Quinnipiac St., Bldg. 40, Wallingford CT 06492
  
  
 ---------------------------------------------------------------
 Warning -- This program may not be used in any manner that
 competes with the business of Gaussian, Inc. or will provide
 assistance to any competitor of Gaussian, Inc.  The licensee
 of this program is prohibited from giving any competitor of
 Gaussian, Inc. access to this program.  By using this program,
 the user acknowledges that Gaussian, Inc. is engaged in the
 business of creating and licensing software in the field of
 computational chemistry and represents and warrants to the
 licensee that it is not a competitor of Gaussian, Inc. and that
 it will not use this program in any manner prohibited above.
 ---------------------------------------------------------------
  

 Cite this work as:
 Gaussian 16, Revision A.03,
 M. J. Frisch, G. W. Trucks, H. B. Schlegel, G. E. Scuseria, 
 M. A. Robb, J. R. Cheeseman, G. Scalmani, V. Barone, 
 G. A. Petersson, H. Nakatsuji, X. Li, M. Caricato, A. V. Marenich, 
 J. Bloino, B. G. Janesko, R. Gomperts, B. Mennucci, H. P. Hratchian, 
 J. V. Ortiz, A. F. Izmaylov, J. L. Sonnenberg, D. Williams-Young, 
 F. Ding, F. Lipparini, F. Egidi, J. Goings, B. Peng, A. Petrone, 
 T. Henderson, D. Ranasinghe, V. G. Zakrzewski, J. Gao, N. Rega, 
 G. Zheng, W. Liang, M. Hada, M. Ehara, K. Toyota, R. Fukuda, 
 J. Hasegawa, M. Ishida, T. Nakajima, Y. Honda, O. Kitao, H. Nakai, 
 T. Vreven, K. Throssell, J. A. Montgomery, Jr., J. E. Peralta, 
 F. Ogliaro, M. J. Bearpark, J. J. Heyd, E. N. Brothers, K. N. Kudin, 
 V. N. Staroverov, T. A. Keith, R. Kobayashi, J. Normand, 
 K. Raghavachari, A. P. Rendell, J. C. Burant, S. S. Iyengar, 
 J. Tomasi, M. Cossi, J. M. Millam, M. Klene, C. Adamo, R. Cammi, 
 J. W. Ochterski, R. L. Martin, K. Morokuma, O. Farkas, 
 J. B. Foresman, and D. J. Fox, Gaussian, Inc., Wallingford CT, 2016.
 
 ******************************************
 Gaussian 16:  ES64L-G16RevA.03 25-Dec-2016
                 5-Jun-2019 
 ******************************************
 %nprocshared=2
 Will use up to    2 processors via shared memory.
 %mem=2GB
 ----------------
 # 6-31g(d) wb97x
 ----------------
 1/38=1,172=1/1;
 2/12=2,17=6,18=5,40=1/2;
 3/5=1,6=6,7=1,11=2,25=1,30=1,74=-57/1,2,3;
 4//1;
 5/5=2,38=5/2;
 6/7=2,8=2,9=2,10=2,28=1/1;
 99/5=1,9=1/99;
 ---------------------
 tmpdir/M2_ref_137.gjf
 ---------------------
 Symbolic Z-matrix:
 Charge =  0 Multiplicity = 1
 C                     0.58085  -1.27787   14.38415 
 N                     1.82945  -1.65096   14.90158 
 H                     0.44494  -0.45314   13.81481 
 O                    -0.37727  -2.02153   14.66262 
 H                     1.85535  -2.50958   15.43048 
 H                     2.70137  -1.24675   14.86383 
 
                          Input orientation:                          
 ---------------------------------------------------------------------
 Center     Atomic      Atomic             Coordinates (Angstroms)
 Number     Number       Type             X           Y           Z
 ---------------------------------------------------------------------
      1          6           0        0.580851   -1.277869   14.384148
      2          7           0        1.829453   -1.650958   14.901584
      3          1           0        0.444937   -0.453143   13.814809
      4          8           0       -0.377274   -2.021529   14.662615
      5          1           0        1.855350   -2.509577   15.430483
      6          1           0        2.701372   -1.246754   14.863826
 ---------------------------------------------------------------------
                    Distance matrix (angstroms):
                    1          2          3          4          5
     1  C    0.000000
     2  N    1.402121   0.000000
     3  H    1.011332   2.129020   0.000000
     4  O    1.244419   2.250350   1.963324   0.000000
     5  H    2.058220   1.008777   2.971294   2.410897   0.000000
     6  H    2.174321   0.961795   2.611849   3.181010   1.622213
                    6
     6  H    0.000000
 Stoichiometry    CH3NO
 Framework group  C1[X(CH3NO)]
 Deg. of freedom    12
 Full point group                 C1      NOp   1
 Largest Abelian subgroup         C1      NOp   1
 Largest concise Abelian subgroup C1      NOp   1
                         Standard orientation:                         
 ---------------------------------------------------------------------
 Center     Atomic      Atomic             Coordinates (Angstroms)
 Number     Number       Type             X           Y           Z
 ---------------------------------------------------------------------
      1          6           0       -0.181566    0.467678   -0.003529
      2          7           0        1.085121   -0.133514    0.000086
      3          1           0       -0.315233    1.470114   -0.010423
      4          8           0       -1.158860   -0.302663    0.003615
      5          1           0        1.101090   -1.141861   -0.024643
      6          1           0        1.978570    0.221578    0.026717
 ---------------------------------------------------------------------
 Rotational constants (GHZ):          64.5156364          11.6150661           9.8436523
 Standard basis: 6-31G(d) (6D, 7F)
 There are    51 symmetry adapted cartesian basis functions of A   symmetry.
 There are    51 symmetry adapted basis functions of A   symmetry.
    51 basis functions,    96 primitive gaussians,    51 cartesian basis functions
    12 alpha electrons       12 beta electrons
       nuclear repulsion energy        70.7870271402 Hartrees.
 NAtoms=    6 NActive=    6 NUniq=    6 SFac= 1.00D+00 NAtFMM=   60 NAOKFM=F Big=F
 Integral buffers will be    131072 words long.
 Raffenetti 2 integral format.
 Two-electron integral symmetry is turned on.
 One-electron integrals computed using PRISM.
 NBasis=    51 RedAO= T EigKep=  5.58D-03  NBF=    51
 NBsUse=    51 1.00D-06 EigRej= -1.00D+00 NBFU=    51
 ExpMin= 1.61D-01 ExpMax= 5.48D+03 ExpMxC= 8.25D+02 IAcc=3 IRadAn=         5 AccDes= 0.00D+00
 Harris functional with IExCor= 4538 and IRadAn=       5 diagonalized for initial guess.
 HarFok:  IExCor= 4538 AccDes= 0.00D+00 IRadAn=         5 IDoV= 1 UseB2=F ITyADJ=14
 ICtDFT=  3500011 ScaDFX=  1.000000  1.000000  1.000000  1.000000
 FoFCou: FMM=F IPFlag=           0 FMFlag=      100000 FMFlg1=           0
         NFxFlg=           0 DoJE=T BraDBF=F KetDBF=T FulRan=T
         wScrn=  0.000000 ICntrl=       500 IOpCl=  0 I1Cent=   200000004 NGrid=           0
         NMat0=    1 NMatS0=      1 NMatT0=    0 NMatD0=    1 NMtDS0=    0 NMtDT0=    0
 Petite list used in FoFCou.
 Keep R1 ints in memory in canonical form, NReq=3503041.
 Requested convergence on RMS density matrix=1.00D-08 within 128 cycles.
 Requested convergence on MAX density matrix=1.00D-06.
 Requested convergence on             energy=1.00D-06.
 No special actions if energy rises.
 Integral accuracy reduced to 1.0D-05 until final iterations.
 Initial convergence to 1.0D-05 achieved.  Increase integral accuracy.
 SCF Done:  E(RwB97X) =  -169.825259306     A.U. after   15 cycles
            NFock= 15  Conv=0.53D-08     -V/T= 2.0087

 **********************************************************************

            Population analysis using the SCF density.

 **********************************************************************

 Orbital symmetries:
       Occupied  (A) (A) (A) (A) (A) (A) (A) (A) (A) (A) (A) (A)
       Virtual   (A) (A) (A) (A) (A) (A) (A) (A) (A) (A) (A) (A)
                 (A) (A) (A) (A) (A) (A) (A) (A) (A) (A) (A) (A)
                 (A) (A) (A) (A) (A) (A) (A) (A) (A) (A) (A) (A)
                 (A) (A) (A)
 The electronic state is 1-A.
 Alpha  occ. eigenvalues --  -19.18149 -14.43082 -10.37613  -1.14624  -1.02088
 Alpha  occ. eigenvalues --   -0.76042  -0.67186  -0.59562  -0.51400  -0.50238
 Alpha  occ. eigenvalues --   -0.36334  -0.35679
 Alpha virt. eigenvalues --    0.10981   0.19027   0.23479   0.26781   0.35393
 Alpha virt. eigenvalues --    0.41980   0.64565   0.64619   0.74865   0.77922
 Alpha virt. eigenvalues --    0.82879   0.84335   0.98764   1.00375   1.02543
 Alpha virt. eigenvalues --    1.03999   1.11592   1.18351   1.27550   1.37843
 Alpha virt. eigenvalues --    1.46999   1.53049   1.58171   1.79455   1.93623
 Alpha virt. eigenvalues --    1.96005   1.96883   2.16749   2.25422   2.32975
 Alpha virt. eigenvalues --    2.38578   2.49700   2.67523   2.80861   3.00758
 Alpha virt. eigenvalues --    3.12580   3.83186   3.94023   4.30371
          Condensed to atoms (all electrons):
               1          2          3          4          5          6
     1  C    4.417786   0.278466   0.378830   0.583121  -0.010458  -0.004909
     2  N    0.278466   7.061411  -0.090800  -0.105386   0.308630   0.310764
     3  H    0.378830  -0.090800   0.589347  -0.051605   0.004679   0.002611
     4  O    0.583121  -0.105386  -0.051605   8.027633   0.008556   0.003367
     5  H   -0.010458   0.308630   0.004679   0.008556   0.353727  -0.023150
     6  H   -0.004909   0.310764   0.002611   0.003367  -0.023150   0.364667
 Mulliken charges:
               1
     1  C    0.357164
     2  N   -0.763084
     3  H    0.166939
     4  O   -0.465687
     5  H    0.358016
     6  H    0.346651
 Sum of Mulliken charges =  -0.00000
 Mulliken charges with hydrogens summed into heavy atoms:
               1
     1  C    0.524103
     2  N   -0.058417
     4  O   -0.465687
 Electronic spatial extent (au):  <R**2>=            144.6807
 Charge=             -0.0000 electrons
 Dipole moment (field-independent basis, Debye):
    X=              3.5199    Y=              1.1926    Z=             -0.0088  Tot=              3.7165
 Quadrupole moment (field-independent basis, Debye-Ang):
   XX=            -17.0236   YY=            -14.6038   ZZ=            -18.4154
   XY=             -1.8762   XZ=              0.0716   YZ=              0.0738
 Traceless Quadrupole moment (field-independent basis, Debye-Ang):
   XX=             -0.3427   YY=              2.0772   ZZ=             -1.7345
   XY=             -1.8762   XZ=              0.0716   YZ=              0.0738
 Octapole moment (field-independent basis, Debye-Ang**2):
  XXX=             12.9879  YYY=             -1.2070  ZZZ=              0.0181  XYY=              1.7552
  XXY=              0.3936  XXZ=              0.1734  XZZ=             -1.5180  YZZ=             -0.1336
  YYZ=             -0.0727  XYZ=              0.0994
 Hexadecapole moment (field-independent basis, Debye-Ang**3):
 XXXX=            -99.3441 YYYY=            -31.3491 ZZZZ=            -15.5781 XXXY=              0.5653
 XXXZ=              0.3985 YYYX=             -3.7078 YYYZ=              0.0987 ZZZX=              0.0332
 ZZZY=              0.0443 XXYY=            -22.6459 XXZZ=            -23.1525 YYZZ=             -8.8225
 XXYZ=              0.1340 YYXZ=             -0.0430 ZZXY=              0.2280
 N-N= 7.078702714021D+01 E-N=-5.394400346146D+02  KE= 1.683622734400D+02
 1\1\GINC-NODE91\SP\RwB97X\6-31G(d)\C1H3N1O1\YANZ\05-Jun-2019\0\\# 6-31
 g(d) wb97x\\tmpdir/M2_ref_137.gjf\\0,1\C,0,0.580851,-1.277869,14.38414
 8\N,0,1.829453,-1.650958,14.901584\H,0,0.44493706,-0.45314278,13.81480
 949\O,0,-0.37727428,-2.02152885,14.66261523\H,0,1.85535,-2.509577,15.4
 30483\H,0,2.70137245,-1.24675429,14.86382631\\Version=ES64L-G16RevA.03
 \State=1-A\HF=-169.8252593\RMSD=5.259e-09\Dipole=1.3599963,0.5345037,-
 0.0514773\Quadrupole=-0.2917083,0.5356225,-0.2439142,-1.0423328,0.9524
 212,-1.3411353\PG=C01 [X(C1H3N1O1)]\\@


 ...THE PHYSICISTS HAVE MADE THEIR UNIVERSE, AND IF YOU DO NOT LIKE
 IT, YOU MUST MAKE YOUR OWN.
                               -- E. R. HARRISON IN "COSMOLOGY" (1980)
 Job cpu time:       0 days  0 hours  0 minutes 10.8 seconds.
 Elapsed time:       0 days  0 hours  0 minutes  5.5 seconds.
 File lengths (MBytes):  RWF=      6 Int=      0 D2E=      0 Chk=      1 Scr=      1
 Normal termination of Gaussian 16 at Wed Jun  5 16:58:10 2019.
