 Entering Gaussian System, Link 0=g16
 Initial command:
 /share/apps/gaussian/g16/l1.exe "/tmp/55477.mgr/Gau-319093.inp" -scrdir="/tmp/55477.mgr/"
 Entering Link 1 = /share/apps/gaussian/g16/l1.exe PID=    319094.
  
 Copyright (c) 1988,1990,1992,1993,1995,1998,2003,2009,2016,
            Gaussian, Inc.  All Rights Reserved.
  
 This is part of the Gaussian(R) 16 program.  It is based on
 the Gaussian(R) 09 system (copyright 2009, Gaussian, Inc.),
 the Gaussian(R) 03 system (copyright 2003, Gaussian, Inc.),
 the Gaussian(R) 98 system (copyright 1998, Gaussian, Inc.),
 the Gaussian(R) 94 system (copyright 1995, Gaussian, Inc.),
 the Gaussian 92(TM) system (copyright 1992, Gaussian, Inc.),
 the Gaussian 90(TM) system (copyright 1990, Gaussian, Inc.),
 the Gaussian 88(TM) system (copyright 1988, Gaussian, Inc.),
 the Gaussian 86(TM) system (copyright 1986, Carnegie Mellon
 University), and the Gaussian 82(TM) system (copyright 1983,
 Carnegie Mellon University). Gaussian is a federally registered
 trademark of Gaussian, Inc.
  
 This software contains proprietary and confidential information,
 including trade secrets, belonging to Gaussian, Inc.
  
 This software is provided under written license and may be
 used, copied, transmitted, or stored only in accord with that
 written license.
  
 The following legend is applicable only to US Government
 contracts under FAR:
  
                    RESTRICTED RIGHTS LEGEND
  
 Use, reproduction and disclosure by the US Government is
 subject to restrictions as set forth in subparagraphs (a)
 and (c) of the Commercial Computer Software - Restricted
 Rights clause in FAR 52.227-19.
  
 Gaussian, Inc.
 340 Quinnipiac St., Bldg. 40, Wallingford CT 06492
  
  
 ---------------------------------------------------------------
 Warning -- This program may not be used in any manner that
 competes with the business of Gaussian, Inc. or will provide
 assistance to any competitor of Gaussian, Inc.  The licensee
 of this program is prohibited from giving any competitor of
 Gaussian, Inc. access to this program.  By using this program,
 the user acknowledges that Gaussian, Inc. is engaged in the
 business of creating and licensing software in the field of
 computational chemistry and represents and warrants to the
 licensee that it is not a competitor of Gaussian, Inc. and that
 it will not use this program in any manner prohibited above.
 ---------------------------------------------------------------
  

 Cite this work as:
 Gaussian 16, Revision A.03,
 M. J. Frisch, G. W. Trucks, H. B. Schlegel, G. E. Scuseria, 
 M. A. Robb, J. R. Cheeseman, G. Scalmani, V. Barone, 
 G. A. Petersson, H. Nakatsuji, X. Li, M. Caricato, A. V. Marenich, 
 J. Bloino, B. G. Janesko, R. Gomperts, B. Mennucci, H. P. Hratchian, 
 J. V. Ortiz, A. F. Izmaylov, J. L. Sonnenberg, D. Williams-Young, 
 F. Ding, F. Lipparini, F. Egidi, J. Goings, B. Peng, A. Petrone, 
 T. Henderson, D. Ranasinghe, V. G. Zakrzewski, J. Gao, N. Rega, 
 G. Zheng, W. Liang, M. Hada, M. Ehara, K. Toyota, R. Fukuda, 
 J. Hasegawa, M. Ishida, T. Nakajima, Y. Honda, O. Kitao, H. Nakai, 
 T. Vreven, K. Throssell, J. A. Montgomery, Jr., J. E. Peralta, 
 F. Ogliaro, M. J. Bearpark, J. J. Heyd, E. N. Brothers, K. N. Kudin, 
 V. N. Staroverov, T. A. Keith, R. Kobayashi, J. Normand, 
 K. Raghavachari, A. P. Rendell, J. C. Burant, S. S. Iyengar, 
 J. Tomasi, M. Cossi, J. M. Millam, M. Klene, C. Adamo, R. Cammi, 
 J. W. Ochterski, R. L. Martin, K. Morokuma, O. Farkas, 
 J. B. Foresman, and D. J. Fox, Gaussian, Inc., Wallingford CT, 2016.
 
 ******************************************
 Gaussian 16:  ES64L-G16RevA.03 25-Dec-2016
                 5-Jun-2019 
 ******************************************
 %nprocshared=2
 Will use up to    2 processors via shared memory.
 %mem=2GB
 ----------------
 # 6-31g(d) wb97x
 ----------------
 1/38=1,172=1/1;
 2/12=2,17=6,18=5,40=1/2;
 3/5=1,6=6,7=1,11=2,25=1,30=1,74=-57/1,2,3;
 4//1;
 5/5=2,38=5/2;
 6/7=2,8=2,9=2,10=2,28=1/1;
 99/5=1,9=1/99;
 ---------------------
 tmpdir/M2_ref_119.gjf
 ---------------------
 Symbolic Z-matrix:
 Charge =  0 Multiplicity = 1
 C                    -1.76035  -1.78362   14.20776 
 C                    -0.50593  -2.12139   14.70001 
 C                    -1.96331  -0.65879   13.42037 
 H                    -2.60631  -2.42489   14.44605 
 H                    -0.37455  -3.01452   15.31378 
 C                     0.58085  -1.27787   14.38415 
 
                          Input orientation:                          
 ---------------------------------------------------------------------
 Center     Atomic      Atomic             Coordinates (Angstroms)
 Number     Number       Type             X           Y           Z
 ---------------------------------------------------------------------
      1          6           0       -1.760345   -1.783623   14.207761
      2          6           0       -0.505932   -2.121388   14.700008
      3          6           0       -1.963313   -0.658791   13.420370
      4          1           0       -2.606307   -2.424887   14.446048
      5          1           0       -0.374547   -3.014520   15.313779
      6          6           0        0.580851   -1.277869   14.384148
 ---------------------------------------------------------------------
                    Distance matrix (angstroms):
                    1          2          3          4          5
     1  C    0.000000
     2  C    1.389224   0.000000
     3  C    1.387958   2.429120   0.000000
     4  H    1.087958   2.137331   2.141157   0.000000
     5  H    2.158430   1.091632   3.414474   2.466045   0.000000
     6  C    2.401687   1.411520   2.790143   3.387840   2.189282
                    6
     6  C    0.000000
 Stoichiometry    C4H2
 Framework group  C1[X(C4H2)]
 Deg. of freedom    12
 Full point group                 C1      NOp   1
 Largest Abelian subgroup         C1      NOp   1
 Largest concise Abelian subgroup C1      NOp   1
                         Standard orientation:                         
 ---------------------------------------------------------------------
 Center     Atomic      Atomic             Coordinates (Angstroms)
 Number     Number       Type             X           Y           Z
 ---------------------------------------------------------------------
      1          6           0       -0.685271    0.477621   -0.001480
      2          6           0        0.703843    0.494925    0.001094
      3          6           0       -1.406314   -0.708346    0.001113
      4          1           0       -1.220634    1.424742   -0.001980
      5          1           0        1.245340    1.442785    0.003100
      6          6           0        1.383624   -0.742122   -0.000914
 ---------------------------------------------------------------------
 Rotational constants (GHZ):          22.6742326           8.2376014           6.0423992
 Standard basis: 6-31G(d) (6D, 7F)
 There are    64 symmetry adapted cartesian basis functions of A   symmetry.
 There are    64 symmetry adapted basis functions of A   symmetry.
    64 basis functions,   120 primitive gaussians,    64 cartesian basis functions
    13 alpha electrons       13 beta electrons
       nuclear repulsion energy        77.3353832961 Hartrees.
 NAtoms=    6 NActive=    6 NUniq=    6 SFac= 1.00D+00 NAtFMM=   60 NAOKFM=F Big=F
 Integral buffers will be    131072 words long.
 Raffenetti 2 integral format.
 Two-electron integral symmetry is turned on.
 One-electron integrals computed using PRISM.
 NBasis=    64 RedAO= T EigKep=  3.10D-03  NBF=    64
 NBsUse=    64 1.00D-06 EigRej= -1.00D+00 NBFU=    64
 ExpMin= 1.61D-01 ExpMax= 3.05D+03 ExpMxC= 4.57D+02 IAcc=3 IRadAn=         5 AccDes= 0.00D+00
 Harris functional with IExCor= 4538 and IRadAn=       5 diagonalized for initial guess.
 HarFok:  IExCor= 4538 AccDes= 0.00D+00 IRadAn=         5 IDoV= 1 UseB2=F ITyADJ=14
 ICtDFT=  3500011 ScaDFX=  1.000000  1.000000  1.000000  1.000000
 FoFCou: FMM=F IPFlag=           0 FMFlag=      100000 FMFlg1=           0
         NFxFlg=           0 DoJE=T BraDBF=F KetDBF=T FulRan=T
         wScrn=  0.000000 ICntrl=       500 IOpCl=  0 I1Cent=   200000004 NGrid=           0
         NMat0=    1 NMatS0=      1 NMatT0=    0 NMatD0=    1 NMtDS0=    0 NMtDT0=    0
 Petite list used in FoFCou.
 Keep R1 ints in memory in canonical form, NReq=6104720.
 Requested convergence on RMS density matrix=1.00D-08 within 128 cycles.
 Requested convergence on MAX density matrix=1.00D-06.
 Requested convergence on             energy=1.00D-06.
 No special actions if energy rises.
 Integral accuracy reduced to 1.0D-05 until final iterations.
 Initial convergence to 1.0D-05 achieved.  Increase integral accuracy.
 SCF Done:  E(RwB97X) =  -153.244449748     A.U. after   19 cycles
            NFock= 19  Conv=0.52D-08     -V/T= 2.0099

 **********************************************************************

            Population analysis using the SCF density.

 **********************************************************************

 Orbital symmetries:
       Occupied  (A) (A) (A) (A) (A) (A) (A) (A) (A) (A) (A) (A)
                 (A)
       Virtual   (A) (A) (A) (A) (A) (A) (A) (A) (A) (A) (A) (A)
                 (A) (A) (A) (A) (A) (A) (A) (A) (A) (A) (A) (A)
                 (A) (A) (A) (A) (A) (A) (A) (A) (A) (A) (A) (A)
                 (A) (A) (A) (A) (A) (A) (A) (A) (A) (A) (A) (A)
                 (A) (A) (A)
 The electronic state is 1-A.
 Alpha  occ. eigenvalues --  -10.36644 -10.36003 -10.31450 -10.30997  -0.97982
 Alpha  occ. eigenvalues --   -0.84306  -0.72432  -0.60264  -0.59405  -0.46713
 Alpha  occ. eigenvalues --   -0.42540  -0.40051  -0.33103
 Alpha virt. eigenvalues --   -0.03450   0.00547   0.02413   0.16785   0.20815
 Alpha virt. eigenvalues --    0.25144   0.34965   0.45982   0.47783   0.58479
 Alpha virt. eigenvalues --    0.60926   0.63282   0.66144   0.66554   0.69236
 Alpha virt. eigenvalues --    0.69992   0.71077   0.72564   0.77629   0.80061
 Alpha virt. eigenvalues --    0.84048   0.93784   0.96907   1.04529   1.06082
 Alpha virt. eigenvalues --    1.23573   1.34728   1.41065   1.50611   1.59700
 Alpha virt. eigenvalues --    1.74970   1.77667   1.84023   1.84110   1.85468
 Alpha virt. eigenvalues --    1.95703   1.98040   2.08317   2.24406   2.30077
 Alpha virt. eigenvalues --    2.31405   2.37999   2.57701   2.62495   2.66920
 Alpha virt. eigenvalues --    2.88602   3.05276   4.06152   4.13194   4.24638
 Alpha virt. eigenvalues --    4.51916
          Condensed to atoms (all electrons):
               1          2          3          4          5          6
     1  C    5.095577   0.378563   0.517687   0.348073  -0.018265  -0.047090
     2  C    0.378563   5.097799  -0.046919  -0.017657   0.349742   0.503185
     3  C    0.517687  -0.046919   5.506554  -0.013556   0.002920   0.000634
     4  H    0.348073  -0.017657  -0.013556   0.451781  -0.007617   0.002877
     5  H   -0.018265   0.349742   0.002920  -0.007617   0.454390  -0.014226
     6  C   -0.047090   0.503185   0.000634   0.002877  -0.014226   5.517194
 Mulliken charges:
               1
     1  C   -0.274546
     2  C   -0.264714
     3  C    0.032680
     4  H    0.236099
     5  H    0.233056
     6  C    0.037425
 Sum of Mulliken charges =  -0.00000
 Mulliken charges with hydrogens summed into heavy atoms:
               1
     1  C   -0.038447
     2  C   -0.031657
     3  C    0.032680
     6  C    0.037425
 Electronic spatial extent (au):  <R**2>=            216.6545
 Charge=             -0.0000 electrons
 Dipole moment (field-independent basis, Debye):
    X=              0.1498    Y=              3.4588    Z=              0.0012  Tot=              3.4621
 Quadrupole moment (field-independent basis, Debye-Ang):
   XX=            -24.2328   YY=            -23.3836   ZZ=            -25.4926
   XY=             -0.1178   XZ=              0.0185   YZ=              0.0026
 Traceless Quadrupole moment (field-independent basis, Debye-Ang):
   XX=              0.1369   YY=              0.9860   ZZ=             -1.1229
   XY=             -0.1178   XZ=              0.0185   YZ=              0.0026
 Octapole moment (field-independent basis, Debye-Ang**2):
  XXX=              1.3117  YYY=             14.8167  ZZZ=              0.0015  XYY=             -0.0052
  XXY=             13.3988  XXZ=              0.0049  XZZ=             -0.0011  YZZ=              1.7237
  YYZ=              0.0030  XYZ=             -0.0027
 Hexadecapole moment (field-independent basis, Debye-Ang**3):
 XXXX=           -197.2866 YYYY=            -92.9210 ZZZZ=            -27.3330 XXXY=             -1.2948
 XXXZ=              0.0942 YYYX=              0.5644 YYYZ=              0.0078 ZZZX=              0.0163
 ZZZY=              0.0022 XXYY=            -57.7433 XXZZ=            -41.3169 YYZZ=            -21.0986
 XXYZ=              0.0049 YYXZ=              0.0259 ZZXY=              0.0008
 N-N= 7.733538329613D+01 E-N=-5.092459814775D+02  KE= 1.517461539024D+02
 1\1\GINC-NODE91\SP\RwB97X\6-31G(d)\C4H2\YANZ\05-Jun-2019\0\\# 6-31g(d)
  wb97x\\tmpdir/M2_ref_119.gjf\\0,1\C,0,-1.760345,-1.783623,14.207761\C
 ,0,-0.505932,-2.121388,14.700008\C,0,-1.963313,-0.658791,13.42037\H,0,
 -2.606307,-2.424887,14.446048\H,0,-0.37454669,-3.01451999,15.31377863\
 C,0,0.580851,-1.277869,14.384148\\Version=ES64L-G16RevA.03\State=1-A\H
 F=-153.2444497\RMSD=5.180e-09\Dipole=-0.4637803,-1.1142008,0.6314655\Q
 uadrupole=0.2276203,0.2129168,-0.4405371,0.3340223,-0.0026878,-0.61077
 26\PG=C01 [X(C4H2)]\\@


 A people that values its privileges above its principles soon loses both.
 -- Dwight D. Eisenhower
 Job cpu time:       0 days  0 hours  0 minutes 17.7 seconds.
 Elapsed time:       0 days  0 hours  0 minutes  9.0 seconds.
 File lengths (MBytes):  RWF=      6 Int=      0 D2E=      0 Chk=      1 Scr=      1
 Normal termination of Gaussian 16 at Wed Jun  5 16:58:14 2019.
