 Entering Gaussian System, Link 0=g16
 Initial command:
 /share/apps/gaussian/g16/l1.exe "/tmp/55477.mgr/Gau-318697.inp" -scrdir="/tmp/55477.mgr/"
 Entering Link 1 = /share/apps/gaussian/g16/l1.exe PID=    318698.
  
 Copyright (c) 1988,1990,1992,1993,1995,1998,2003,2009,2016,
            Gaussian, Inc.  All Rights Reserved.
  
 This is part of the Gaussian(R) 16 program.  It is based on
 the Gaussian(R) 09 system (copyright 2009, Gaussian, Inc.),
 the Gaussian(R) 03 system (copyright 2003, Gaussian, Inc.),
 the Gaussian(R) 98 system (copyright 1998, Gaussian, Inc.),
 the Gaussian(R) 94 system (copyright 1995, Gaussian, Inc.),
 the Gaussian 92(TM) system (copyright 1992, Gaussian, Inc.),
 the Gaussian 90(TM) system (copyright 1990, Gaussian, Inc.),
 the Gaussian 88(TM) system (copyright 1988, Gaussian, Inc.),
 the Gaussian 86(TM) system (copyright 1986, Carnegie Mellon
 University), and the Gaussian 82(TM) system (copyright 1983,
 Carnegie Mellon University). Gaussian is a federally registered
 trademark of Gaussian, Inc.
  
 This software contains proprietary and confidential information,
 including trade secrets, belonging to Gaussian, Inc.
  
 This software is provided under written license and may be
 used, copied, transmitted, or stored only in accord with that
 written license.
  
 The following legend is applicable only to US Government
 contracts under FAR:
  
                    RESTRICTED RIGHTS LEGEND
  
 Use, reproduction and disclosure by the US Government is
 subject to restrictions as set forth in subparagraphs (a)
 and (c) of the Commercial Computer Software - Restricted
 Rights clause in FAR 52.227-19.
  
 Gaussian, Inc.
 340 Quinnipiac St., Bldg. 40, Wallingford CT 06492
  
  
 ---------------------------------------------------------------
 Warning -- This program may not be used in any manner that
 competes with the business of Gaussian, Inc. or will provide
 assistance to any competitor of Gaussian, Inc.  The licensee
 of this program is prohibited from giving any competitor of
 Gaussian, Inc. access to this program.  By using this program,
 the user acknowledges that Gaussian, Inc. is engaged in the
 business of creating and licensing software in the field of
 computational chemistry and represents and warrants to the
 licensee that it is not a competitor of Gaussian, Inc. and that
 it will not use this program in any manner prohibited above.
 ---------------------------------------------------------------
  

 Cite this work as:
 Gaussian 16, Revision A.03,
 M. J. Frisch, G. W. Trucks, H. B. Schlegel, G. E. Scuseria, 
 M. A. Robb, J. R. Cheeseman, G. Scalmani, V. Barone, 
 G. A. Petersson, H. Nakatsuji, X. Li, M. Caricato, A. V. Marenich, 
 J. Bloino, B. G. Janesko, R. Gomperts, B. Mennucci, H. P. Hratchian, 
 J. V. Ortiz, A. F. Izmaylov, J. L. Sonnenberg, D. Williams-Young, 
 F. Ding, F. Lipparini, F. Egidi, J. Goings, B. Peng, A. Petrone, 
 T. Henderson, D. Ranasinghe, V. G. Zakrzewski, J. Gao, N. Rega, 
 G. Zheng, W. Liang, M. Hada, M. Ehara, K. Toyota, R. Fukuda, 
 J. Hasegawa, M. Ishida, T. Nakajima, Y. Honda, O. Kitao, H. Nakai, 
 T. Vreven, K. Throssell, J. A. Montgomery, Jr., J. E. Peralta, 
 F. Ogliaro, M. J. Bearpark, J. J. Heyd, E. N. Brothers, K. N. Kudin, 
 V. N. Staroverov, T. A. Keith, R. Kobayashi, J. Normand, 
 K. Raghavachari, A. P. Rendell, J. C. Burant, S. S. Iyengar, 
 J. Tomasi, M. Cossi, J. M. Millam, M. Klene, C. Adamo, R. Cammi, 
 J. W. Ochterski, R. L. Martin, K. Morokuma, O. Farkas, 
 J. B. Foresman, and D. J. Fox, Gaussian, Inc., Wallingford CT, 2016.
 
 ******************************************
 Gaussian 16:  ES64L-G16RevA.03 25-Dec-2016
                 5-Jun-2019 
 ******************************************
 %nprocshared=2
 Will use up to    2 processors via shared memory.
 %mem=2GB
 ----------------
 # 6-31g(d) wb97x
 ----------------
 1/38=1,172=1/1;
 2/12=2,17=6,18=5,40=1/2;
 3/5=1,6=6,7=1,11=2,25=1,30=1,74=-57/1,2,3;
 4//1;
 5/5=2,38=5/2;
 6/7=2,8=2,9=2,10=2,28=1/1;
 99/5=1,9=1/99;
 ---------------------
 tmpdir/M2_ref_116.gjf
 ---------------------
 Symbolic Z-matrix:
 Charge =  0 Multiplicity = 1
 C                    -0.88004   0.16142   13.11387 
 C                    -1.96331  -0.65879   13.42037 
 C                    -1.76035  -1.78362   14.20776 
 H                    -1.08401   1.06928   12.50554 
 O                     0.24238  -0.10305   13.54037 
 H                    -2.95636  -0.42654   13.04124 
 H                    -2.60631  -2.42489   14.44605 
 H                    -0.85229  -2.02813   14.56409 
 
                          Input orientation:                          
 ---------------------------------------------------------------------
 Center     Atomic      Atomic             Coordinates (Angstroms)
 Number     Number       Type             X           Y           Z
 ---------------------------------------------------------------------
      1          6           0       -0.880038    0.161420   13.113865
      2          6           0       -1.963313   -0.658791   13.420370
      3          6           0       -1.760345   -1.783623   14.207761
      4          1           0       -1.084013    1.069278   12.505541
      5          8           0        0.242376   -0.103052   13.540373
      6          1           0       -2.956356   -0.426544   13.041243
      7          1           0       -2.606307   -2.424887   14.446048
      8          1           0       -0.852293   -2.028126   14.564092
 ---------------------------------------------------------------------
                    Distance matrix (angstroms):
                    1          2          3          4          5
     1  C    0.000000
     2  C    1.392902   0.000000
     3  C    2.398904   1.387958   0.000000
     4  H    1.111697   2.143899   3.390284   0.000000
     5  O    1.229499   2.277787   2.698262   2.050498   0.000000
     6  H    2.159183   1.088030   2.152410   2.455633   3.253562
     7  H    3.382854   2.141157   1.087958   4.276931   3.784992
     8  H    2.626412   2.101795   1.005640   3.726290   2.439716
                    6          7          8
     6  H    0.000000
     7  H    2.467668   0.000000
     8  H    3.051428   1.802198   0.000000
 Stoichiometry    C3H4O
 Framework group  C1[X(C3H4O)]
 Deg. of freedom    18
 Full point group                 C1      NOp   1
 Largest Abelian subgroup         C1      NOp   1
 Largest concise Abelian subgroup C1      NOp   1
                         Standard orientation:                         
 ---------------------------------------------------------------------
 Center     Atomic      Atomic             Coordinates (Angstroms)
 Number     Number       Type             X           Y           Z
 ---------------------------------------------------------------------
      1          6           0        0.794895    0.480139   -0.004590
      2          6           0       -0.588218    0.644933   -0.000516
      3          6           0       -1.404525   -0.477593    0.001779
      4          1           0        1.418045    1.400348    0.023146
      5          8           0        1.288481   -0.645924    0.000235
      6          1           0       -1.025561    1.641175   -0.007187
      7          1           0       -2.484826   -0.348754    0.003682
      8          1           0       -1.028418   -1.410247   -0.001560
 ---------------------------------------------------------------------
 Rotational constants (GHZ):          21.2110359           6.9901612           5.2576214
 Standard basis: 6-31G(d) (6D, 7F)
 There are    68 symmetry adapted cartesian basis functions of A   symmetry.
 There are    68 symmetry adapted basis functions of A   symmetry.
    68 basis functions,   128 primitive gaussians,    68 cartesian basis functions
    15 alpha electrons       15 beta electrons
       nuclear repulsion energy       106.3038926401 Hartrees.
 NAtoms=    8 NActive=    8 NUniq=    8 SFac= 1.00D+00 NAtFMM=   60 NAOKFM=F Big=F
 Integral buffers will be    131072 words long.
 Raffenetti 2 integral format.
 Two-electron integral symmetry is turned on.
 One-electron integrals computed using PRISM.
 NBasis=    68 RedAO= T EigKep=  2.85D-03  NBF=    68
 NBsUse=    68 1.00D-06 EigRej= -1.00D+00 NBFU=    68
 ExpMin= 1.61D-01 ExpMax= 5.48D+03 ExpMxC= 8.25D+02 IAcc=3 IRadAn=         5 AccDes= 0.00D+00
 Harris functional with IExCor= 4538 and IRadAn=       5 diagonalized for initial guess.
 HarFok:  IExCor= 4538 AccDes= 0.00D+00 IRadAn=         5 IDoV= 1 UseB2=F ITyADJ=14
 ICtDFT=  3500011 ScaDFX=  1.000000  1.000000  1.000000  1.000000
 FoFCou: FMM=F IPFlag=           0 FMFlag=      100000 FMFlg1=           0
         NFxFlg=           0 DoJE=T BraDBF=F KetDBF=T FulRan=T
         wScrn=  0.000000 ICntrl=       500 IOpCl=  0 I1Cent=   200000004 NGrid=           0
         NMat0=    1 NMatS0=      1 NMatT0=    0 NMatD0=    1 NMtDS0=    0 NMtDT0=    0
 Petite list used in FoFCou.
 Keep R1 ints in memory in canonical form, NReq=7290824.
 Requested convergence on RMS density matrix=1.00D-08 within 128 cycles.
 Requested convergence on MAX density matrix=1.00D-06.
 Requested convergence on             energy=1.00D-06.
 No special actions if energy rises.
 Integral accuracy reduced to 1.0D-05 until final iterations.
 Initial convergence to 1.0D-05 achieved.  Increase integral accuracy.
 SCF Done:  E(RwB97X) =  -191.837662507     A.U. after   15 cycles
            NFock= 15  Conv=0.47D-08     -V/T= 2.0084

 **********************************************************************

            Population analysis using the SCF density.

 **********************************************************************

 Orbital symmetries:
       Occupied  (A) (A) (A) (A) (A) (A) (A) (A) (A) (A) (A) (A)
                 (A) (A) (A)
       Virtual   (A) (A) (A) (A) (A) (A) (A) (A) (A) (A) (A) (A)
                 (A) (A) (A) (A) (A) (A) (A) (A) (A) (A) (A) (A)
                 (A) (A) (A) (A) (A) (A) (A) (A) (A) (A) (A) (A)
                 (A) (A) (A) (A) (A) (A) (A) (A) (A) (A) (A) (A)
                 (A) (A) (A) (A) (A)
 The electronic state is 1-A.
 Alpha  occ. eigenvalues --  -19.20631 -10.35356 -10.29942 -10.28747  -1.15824
 Alpha  occ. eigenvalues --   -0.92355  -0.79603  -0.66417  -0.63127  -0.55786
 Alpha  occ. eigenvalues --   -0.52020  -0.50522  -0.49556  -0.37145  -0.35759
 Alpha virt. eigenvalues --    0.01051   0.17358   0.20117   0.23715   0.26727
 Alpha virt. eigenvalues --    0.30373   0.35123   0.41027   0.46094   0.61965
 Alpha virt. eigenvalues --    0.63657   0.68751   0.68821   0.70317   0.74312
 Alpha virt. eigenvalues --    0.75126   0.80232   0.91519   0.96233   0.97466
 Alpha virt. eigenvalues --    0.98105   1.03625   1.09285   1.10820   1.20719
 Alpha virt. eigenvalues --    1.21127   1.26326   1.38880   1.43404   1.52027
 Alpha virt. eigenvalues --    1.65205   1.66600   1.75608   1.86697   1.94814
 Alpha virt. eigenvalues --    1.95412   2.05766   2.06707   2.18141   2.31002
 Alpha virt. eigenvalues --    2.33522   2.41549   2.42581   2.64752   2.66881
 Alpha virt. eigenvalues --    2.73100   2.88199   3.02811   3.19944   3.97722
 Alpha virt. eigenvalues --    4.21973   4.27861   4.51171
          Condensed to atoms (all electrons):
               1          2          3          4          5          6
     1  C    4.561196   0.330995  -0.028736   0.377242   0.574157  -0.026234
     2  C    0.330995   5.212839   0.581977  -0.116275  -0.107191   0.359262
     3  C   -0.028736   0.581977   5.015036   0.008237  -0.000673  -0.035961
     4  H    0.377242  -0.116275   0.008237   0.649208  -0.050925   0.001866
     5  O    0.574157  -0.107191  -0.000673  -0.050925   7.983595   0.003181
     6  H   -0.026234   0.359262  -0.035961   0.001866   0.003181   0.527023
     7  H    0.004039  -0.032096   0.369227  -0.000032   0.000677  -0.003339
     8  H   -0.008363  -0.034597   0.387757   0.000515   0.014285   0.003653
               7          8
     1  C    0.004039  -0.008363
     2  C   -0.032096  -0.034597
     3  C    0.369227   0.387757
     4  H   -0.000032   0.000515
     5  O    0.000677   0.014285
     6  H   -0.003339   0.003653
     7  H    0.512800  -0.029387
     8  H   -0.029387   0.451780
 Mulliken charges:
               1
     1  C    0.215703
     2  C   -0.194914
     3  C   -0.296863
     4  H    0.130164
     5  O   -0.417106
     6  H    0.170549
     7  H    0.178111
     8  H    0.214357
 Sum of Mulliken charges =  -0.00000
 Mulliken charges with hydrogens summed into heavy atoms:
               1
     1  C    0.345867
     2  C   -0.024366
     3  C    0.095605
     5  O   -0.417106
 Electronic spatial extent (au):  <R**2>=            253.8588
 Charge=              0.0000 electrons
 Dipole moment (field-independent basis, Debye):
    X=             -2.1647    Y=              1.6980    Z=             -0.0047  Tot=              2.7512
 Quadrupole moment (field-independent basis, Debye-Ang):
   XX=            -23.3868   YY=            -21.7480   ZZ=            -24.3078
   XY=              3.1312   XZ=              0.0058   YZ=             -0.0027
 Traceless Quadrupole moment (field-independent basis, Debye-Ang):
   XX=             -0.2393   YY=              1.3995   ZZ=             -1.1603
   XY=              3.1312   XZ=              0.0058   YZ=             -0.0027
 Octapole moment (field-independent basis, Debye-Ang**2):
  XXX=             -5.5115  YYY=             -0.9617  ZZZ=             -0.0090  XYY=             -0.6257
  XXY=              1.9607  XXZ=              0.0121  XZZ=              3.1877  YZZ=             -1.2115
  YYZ=              0.0014  XYZ=              0.0249
 Hexadecapole moment (field-independent basis, Debye-Ang**3):
 XXXX=           -200.0084 YYYY=            -83.6421 ZZZZ=            -22.6303 XXXY=              4.1216
 XXXZ=              0.0030 YYYX=             -1.3286 YYYZ=              0.0037 ZZZX=              0.0068
 ZZZY=             -0.0126 XXYY=            -48.4669 XXZZ=            -40.2328 YYZZ=            -19.2551
 XXYZ=              0.0323 YYXZ=              0.0732 ZZXY=             -0.6618
 N-N= 1.063038926401D+02 E-N=-6.600855188904D+02  KE= 1.902348999445D+02
 1\1\GINC-NODE91\SP\RwB97X\6-31G(d)\C3H4O1\YANZ\05-Jun-2019\0\\# 6-31g(
 d) wb97x\\tmpdir/M2_ref_116.gjf\\0,1\C,0,-0.880038,0.16142,13.113865\C
 ,0,-1.963313,-0.658791,13.42037\C,0,-1.760345,-1.783623,14.207761\H,0,
 -1.08401257,1.06927843,12.50554122\O,0,0.24237642,-0.10305158,13.54037
 319\H,0,-2.956356,-0.426544,13.041243\H,0,-2.606307,-2.424887,14.44604
 8\H,0,-0.85229299,-2.02812635,14.56409171\\Version=ES64L-G16RevA.03\St
 ate=1-A\HF=-191.8376625\RMSD=4.661e-09\Dipole=-1.0574602,-0.2098283,-0
 .0965944\Quadrupole=-1.8726852,1.5672622,0.305423,-0.5730581,0.1603581
 ,-1.7223264\PG=C01 [X(C3H4O1)]\\@


 I think that all right-thinking people in this
 country are sick and tired of being told that
 ordinary, decent people are fed up in this country
 with being sick and tired.  I'm certainly not!
 But I'm sick and tired of being told that I am!
                               -- Monty Python
 Job cpu time:       0 days  0 hours  0 minutes 18.6 seconds.
 Elapsed time:       0 days  0 hours  0 minutes  9.4 seconds.
 File lengths (MBytes):  RWF=      6 Int=      0 D2E=      0 Chk=      1 Scr=      1
 Normal termination of Gaussian 16 at Wed Jun  5 16:57:58 2019.
