 Entering Gaussian System, Link 0=g16
 Initial command:
 /share/apps/gaussian/g16/l1.exe "/tmp/55477.mgr/Gau-319810.inp" -scrdir="/tmp/55477.mgr/"
 Entering Link 1 = /share/apps/gaussian/g16/l1.exe PID=    319811.
  
 Copyright (c) 1988,1990,1992,1993,1995,1998,2003,2009,2016,
            Gaussian, Inc.  All Rights Reserved.
  
 This is part of the Gaussian(R) 16 program.  It is based on
 the Gaussian(R) 09 system (copyright 2009, Gaussian, Inc.),
 the Gaussian(R) 03 system (copyright 2003, Gaussian, Inc.),
 the Gaussian(R) 98 system (copyright 1998, Gaussian, Inc.),
 the Gaussian(R) 94 system (copyright 1995, Gaussian, Inc.),
 the Gaussian 92(TM) system (copyright 1992, Gaussian, Inc.),
 the Gaussian 90(TM) system (copyright 1990, Gaussian, Inc.),
 the Gaussian 88(TM) system (copyright 1988, Gaussian, Inc.),
 the Gaussian 86(TM) system (copyright 1986, Carnegie Mellon
 University), and the Gaussian 82(TM) system (copyright 1983,
 Carnegie Mellon University). Gaussian is a federally registered
 trademark of Gaussian, Inc.
  
 This software contains proprietary and confidential information,
 including trade secrets, belonging to Gaussian, Inc.
  
 This software is provided under written license and may be
 used, copied, transmitted, or stored only in accord with that
 written license.
  
 The following legend is applicable only to US Government
 contracts under FAR:
  
                    RESTRICTED RIGHTS LEGEND
  
 Use, reproduction and disclosure by the US Government is
 subject to restrictions as set forth in subparagraphs (a)
 and (c) of the Commercial Computer Software - Restricted
 Rights clause in FAR 52.227-19.
  
 Gaussian, Inc.
 340 Quinnipiac St., Bldg. 40, Wallingford CT 06492
  
  
 ---------------------------------------------------------------
 Warning -- This program may not be used in any manner that
 competes with the business of Gaussian, Inc. or will provide
 assistance to any competitor of Gaussian, Inc.  The licensee
 of this program is prohibited from giving any competitor of
 Gaussian, Inc. access to this program.  By using this program,
 the user acknowledges that Gaussian, Inc. is engaged in the
 business of creating and licensing software in the field of
 computational chemistry and represents and warrants to the
 licensee that it is not a competitor of Gaussian, Inc. and that
 it will not use this program in any manner prohibited above.
 ---------------------------------------------------------------
  

 Cite this work as:
 Gaussian 16, Revision A.03,
 M. J. Frisch, G. W. Trucks, H. B. Schlegel, G. E. Scuseria, 
 M. A. Robb, J. R. Cheeseman, G. Scalmani, V. Barone, 
 G. A. Petersson, H. Nakatsuji, X. Li, M. Caricato, A. V. Marenich, 
 J. Bloino, B. G. Janesko, R. Gomperts, B. Mennucci, H. P. Hratchian, 
 J. V. Ortiz, A. F. Izmaylov, J. L. Sonnenberg, D. Williams-Young, 
 F. Ding, F. Lipparini, F. Egidi, J. Goings, B. Peng, A. Petrone, 
 T. Henderson, D. Ranasinghe, V. G. Zakrzewski, J. Gao, N. Rega, 
 G. Zheng, W. Liang, M. Hada, M. Ehara, K. Toyota, R. Fukuda, 
 J. Hasegawa, M. Ishida, T. Nakajima, Y. Honda, O. Kitao, H. Nakai, 
 T. Vreven, K. Throssell, J. A. Montgomery, Jr., J. E. Peralta, 
 F. Ogliaro, M. J. Bearpark, J. J. Heyd, E. N. Brothers, K. N. Kudin, 
 V. N. Staroverov, T. A. Keith, R. Kobayashi, J. Normand, 
 K. Raghavachari, A. P. Rendell, J. C. Burant, S. S. Iyengar, 
 J. Tomasi, M. Cossi, J. M. Millam, M. Klene, C. Adamo, R. Cammi, 
 J. W. Ochterski, R. L. Martin, K. Morokuma, O. Farkas, 
 J. B. Foresman, and D. J. Fox, Gaussian, Inc., Wallingford CT, 2016.
 
 ******************************************
 Gaussian 16:  ES64L-G16RevA.03 25-Dec-2016
                 5-Jun-2019 
 ******************************************
 %nprocshared=2
 Will use up to    2 processors via shared memory.
 %mem=2GB
 ----------------
 # 6-31g(d) wb97x
 ----------------
 1/38=1,172=1/1;
 2/12=2,17=6,18=5,40=1/2;
 3/5=1,6=6,7=1,11=2,25=1,30=1,74=-57/1,2,3;
 4//1;
 5/5=2,38=5/2;
 6/7=2,8=2,9=2,10=2,28=1/1;
 99/5=1,9=1/99;
 ---------------------
 tmpdir/M2_ref_172.gjf
 ---------------------
 Symbolic Z-matrix:
 Charge =  0 Multiplicity = 1
 C                     4.50745   0.57551   14.19911 
 C                     4.69498   1.86037   13.47925 
 C                     5.75709   2.72061   13.76777 
 H                     3.52932   0.18462   14.20669 
 O                     5.43335  -0.01337   14.75056 
 O                     3.89579   2.21016   12.61206 
 O                     5.95632   3.83466   13.18067 
 H                     6.47025   2.4715    14.55324 
 
                          Input orientation:                          
 ---------------------------------------------------------------------
 Center     Atomic      Atomic             Coordinates (Angstroms)
 Number     Number       Type             X           Y           Z
 ---------------------------------------------------------------------
      1          6           0        4.507447    0.575506   14.199113
      2          6           0        4.694978    1.860366   13.479253
      3          6           0        5.757091    2.720608   13.767767
      4          1           0        3.529323    0.184624   14.206695
      5          8           0        5.433355   -0.013369   14.750560
      6          8           0        3.895789    2.210159   12.612057
      7          8           0        5.956316    3.834662   13.180674
      8          1           0        6.470246    2.471497   14.553239
 ---------------------------------------------------------------------
                    Distance matrix (angstroms):
                    1          2          3          4          5
     1  C    0.000000
     2  C    1.484665   0.000000
     3  C    2.519748   1.396904   0.000000
     4  H    1.053362   2.167033   3.403942   0.000000
     5  O    1.228077   2.381660   2.923238   1.990057   0.000000
     6  O    2.359017   1.230076   2.249594   2.603835   3.446938
     7  O    3.709250   2.361772   1.274945   4.501754   4.188720
     8  H    2.751866   2.162985   1.089776   3.741511   2.699748
                    6          7          8
     6  O    0.000000
     7  O    2.684792   0.000000
     8  H    3.234860   2.001569   0.000000
 Stoichiometry    C3H2O3
 Framework group  C1[X(C3H2O3)]
 Deg. of freedom    18
 Full point group                 C1      NOp   1
 Largest Abelian subgroup         C1      NOp   1
 Largest concise Abelian subgroup C1      NOp   1
                         Standard orientation:                         
 ---------------------------------------------------------------------
 Center     Atomic      Atomic             Coordinates (Angstroms)
 Number     Number       Type             X           Y           Z
 ---------------------------------------------------------------------
      1          6           0       -1.460660    0.246990    0.137615
      2          6           0        0.011522    0.402251    0.024459
      3          6           0        0.875653   -0.694370    0.069659
      4          1           0       -1.993755    1.092583    0.469810
      5          8           0       -2.037742   -0.799342   -0.145828
      6          8           0        0.512053    1.519560   -0.094612
      7          8           0        2.144773   -0.610354   -0.018430
      8          1           0        0.481984   -1.700715    0.210753
 ---------------------------------------------------------------------
 Rotational constants (GHZ):           7.5825486           2.7417800           2.0304722
 Standard basis: 6-31G(d) (6D, 7F)
 There are    94 symmetry adapted cartesian basis functions of A   symmetry.
 There are    94 symmetry adapted basis functions of A   symmetry.
    94 basis functions,   176 primitive gaussians,    94 cartesian basis functions
    22 alpha electrons       22 beta electrons
       nuclear repulsion energy       205.5997670139 Hartrees.
 NAtoms=    8 NActive=    8 NUniq=    8 SFac= 1.00D+00 NAtFMM=   60 NAOKFM=F Big=F
 Integral buffers will be    131072 words long.
 Raffenetti 2 integral format.
 Two-electron integral symmetry is turned on.
 One-electron integrals computed using PRISM.
 NBasis=    94 RedAO= T EigKep=  2.44D-03  NBF=    94
 NBsUse=    94 1.00D-06 EigRej= -1.00D+00 NBFU=    94
 ExpMin= 1.61D-01 ExpMax= 5.48D+03 ExpMxC= 8.25D+02 IAcc=3 IRadAn=         5 AccDes= 0.00D+00
 Harris functional with IExCor= 4538 and IRadAn=       5 diagonalized for initial guess.
 HarFok:  IExCor= 4538 AccDes= 0.00D+00 IRadAn=         5 IDoV= 1 UseB2=F ITyADJ=14
 ICtDFT=  3500011 ScaDFX=  1.000000  1.000000  1.000000  1.000000
 FoFCou: FMM=F IPFlag=           0 FMFlag=      100000 FMFlg1=           0
         NFxFlg=           0 DoJE=T BraDBF=F KetDBF=T FulRan=T
         wScrn=  0.000000 ICntrl=       500 IOpCl=  0 I1Cent=   200000004 NGrid=           0
         NMat0=    1 NMatS0=      1 NMatT0=    0 NMatD0=    1 NMtDS0=    0 NMtDT0=    0
 Petite list used in FoFCou.
 Keep R1 ints in memory in canonical form, NReq=21775454.
 Requested convergence on RMS density matrix=1.00D-08 within 128 cycles.
 Requested convergence on MAX density matrix=1.00D-06.
 Requested convergence on             energy=1.00D-06.
 No special actions if energy rises.
 Integral accuracy reduced to 1.0D-05 until final iterations.
 Initial convergence to 1.0D-05 achieved.  Increase integral accuracy.
 SCF Done:  E(RwB97X) =  -341.018978757     A.U. after   20 cycles
            NFock= 20  Conv=0.81D-08     -V/T= 2.0084

 **********************************************************************

            Population analysis using the SCF density.

 **********************************************************************

 Orbital symmetries:
       Occupied  (A) (A) (A) (A) (A) (A) (A) (A) (A) (A) (A) (A)
                 (A) (A) (A) (A) (A) (A) (A) (A) (A) (A)
       Virtual   (A) (A) (A) (A) (A) (A) (A) (A) (A) (A) (A) (A)
                 (A) (A) (A) (A) (A) (A) (A) (A) (A) (A) (A) (A)
                 (A) (A) (A) (A) (A) (A) (A) (A) (A) (A) (A) (A)
                 (A) (A) (A) (A) (A) (A) (A) (A) (A) (A) (A) (A)
                 (A) (A) (A) (A) (A) (A) (A) (A) (A) (A) (A) (A)
                 (A) (A) (A) (A) (A) (A) (A) (A) (A) (A) (A) (A)
 The electronic state is 1-A.
 Alpha  occ. eigenvalues --  -19.27911 -19.27730 -19.26314 -10.40656 -10.40517
 Alpha  occ. eigenvalues --  -10.39149  -1.23615  -1.21320  -1.17008  -0.91093
 Alpha  occ. eigenvalues --   -0.81857  -0.68650  -0.67139  -0.61699  -0.59786
 Alpha  occ. eigenvalues --   -0.57690  -0.56027  -0.52500  -0.48083  -0.45310
 Alpha  occ. eigenvalues --   -0.41555  -0.38060
 Alpha virt. eigenvalues --   -0.07157   0.01906   0.15609   0.21522   0.22798
 Alpha virt. eigenvalues --    0.25992   0.35626   0.36883   0.40371   0.48005
 Alpha virt. eigenvalues --    0.56637   0.60869   0.64106   0.67971   0.71446
 Alpha virt. eigenvalues --    0.72416   0.74022   0.75856   0.85966   0.87589
 Alpha virt. eigenvalues --    0.90770   0.93362   0.96299   1.00003   1.02566
 Alpha virt. eigenvalues --    1.04429   1.06288   1.09966   1.13382   1.15190
 Alpha virt. eigenvalues --    1.16655   1.24134   1.26507   1.34938   1.44296
 Alpha virt. eigenvalues --    1.51882   1.57589   1.59119   1.61978   1.71901
 Alpha virt. eigenvalues --    1.78794   1.79568   1.82911   1.83474   1.90274
 Alpha virt. eigenvalues --    1.93155   1.94277   2.04467   2.05818   2.09744
 Alpha virt. eigenvalues --    2.13014   2.15971   2.23956   2.35010   2.39546
 Alpha virt. eigenvalues --    2.50543   2.51304   2.61727   2.67120   2.68813
 Alpha virt. eigenvalues --    2.74709   2.93581   2.98602   3.02168   3.14454
 Alpha virt. eigenvalues --    3.27571   3.80442   3.90425   4.06573   4.25462
 Alpha virt. eigenvalues --    4.31761   4.63585
          Condensed to atoms (all electrons):
               1          2          3          4          5          6
     1  C    4.824010   0.217853  -0.061777   0.370976   0.511007  -0.051010
     2  C    0.217853   5.089419   0.143146  -0.091811  -0.069412   0.521651
     3  C   -0.061777   0.143146   4.926980   0.007300   0.013496  -0.078189
     4  H    0.370976  -0.091811   0.007300   0.558351  -0.043991   0.007807
     5  O    0.511007  -0.069412   0.013496  -0.043991   7.932799   0.001756
     6  O   -0.051010   0.521651  -0.078189   0.007807   0.001756   7.959474
     7  O    0.002444  -0.055317   0.504502  -0.000015   0.000089  -0.005431
     8  H    0.012457  -0.101285   0.387796   0.000097   0.002061   0.003176
               7          8
     1  C    0.002444   0.012457
     2  C   -0.055317  -0.101285
     3  C    0.504502   0.387796
     4  H   -0.000015   0.000097
     5  O    0.000089   0.002061
     6  O   -0.005431   0.003176
     7  O    7.949918  -0.048422
     8  H   -0.048422   0.557144
 Mulliken charges:
               1
     1  C    0.174041
     2  C    0.345757
     3  C    0.156746
     4  H    0.191287
     5  O   -0.347804
     6  O   -0.359234
     7  O   -0.347768
     8  H    0.186976
 Sum of Mulliken charges =  -0.00000
 Mulliken charges with hydrogens summed into heavy atoms:
               1
     1  C    0.365328
     2  C    0.345757
     3  C    0.343722
     5  O   -0.347804
     6  O   -0.359234
     7  O   -0.347768
 Electronic spatial extent (au):  <R**2>=            540.3955
 Charge=             -0.0000 electrons
 Dipole moment (field-independent basis, Debye):
    X=             -2.1233    Y=             -0.0600    Z=              0.9075  Tot=              2.3099
 Quadrupole moment (field-independent basis, Debye-Ang):
   XX=            -40.7932   YY=            -34.8508   ZZ=            -30.3287
   XY=             -4.1095   XZ=             -0.7751   YZ=              0.0590
 Traceless Quadrupole moment (field-independent basis, Debye-Ang):
   XX=             -5.4689   YY=              0.4734   ZZ=              4.9955
   XY=             -4.1095   XZ=             -0.7751   YZ=              0.0590
 Octapole moment (field-independent basis, Debye-Ang**2):
  XXX=             -6.5911  YYY=             -5.4866  ZZZ=             -0.7365  XYY=             -0.9335
  XXY=             11.6930  XXZ=              2.2101  XZZ=              0.4470  YZZ=              0.5928
  YYZ=              1.0897  XYZ=              0.1828
 Hexadecapole moment (field-independent basis, Debye-Ang**3):
 XXXX=           -467.6767 YYYY=           -175.3347 ZZZZ=            -26.9741 XXXY=             -5.6847
 XXXZ=             -3.0287 YYYX=             -1.5770 YYYZ=              0.0569 ZZZX=              0.4365
 ZZZY=              0.0704 XXYY=           -103.7957 XXZZ=            -70.9796 YYZZ=            -32.0205
 XXYZ=              0.5466 YYXZ=             -0.7252 ZZXY=              0.8067
 N-N= 2.055997670139D+02 E-N=-1.210497337608D+03  KE= 3.381761551294D+02
 1\1\GINC-NODE91\SP\RwB97X\6-31G(d)\C3H2O3\YANZ\05-Jun-2019\0\\# 6-31g(
 d) wb97x\\tmpdir/M2_ref_172.gjf\\0,1\C,0,4.507447,0.575506,14.199113\C
 ,0,4.694978,1.860366,13.479253\C,0,5.757091,2.720608,13.767767\H,0,3.5
 2932312,0.1846243,14.20669486\O,0,5.43335451,-0.01336941,14.75056028\O
 ,0,3.89578869,2.21015861,12.61205671\O,0,5.95631587,3.83466229,13.1806
 7415\H,0,6.470246,2.471497,14.553239\\Version=ES64L-G16RevA.03\State=1
 -A\HF=-341.0189788\RMSD=8.082e-09\Dipole=-0.3070806,-0.6116675,0.59785
 91\Quadrupole=2.1114757,-2.8865872,0.7751115,1.1823602,-1.8694211,3.64
 76986\PG=C01 [X(C3H2O3)]\\@


 Change starts when someone sees the next step.
                            -- William Drayton
 Job cpu time:       0 days  0 hours  0 minutes 32.1 seconds.
 Elapsed time:       0 days  0 hours  0 minutes 16.3 seconds.
 File lengths (MBytes):  RWF=     10 Int=      0 D2E=      0 Chk=      2 Scr=      1
 Normal termination of Gaussian 16 at Wed Jun  5 16:58:53 2019.
