 Entering Gaussian System, Link 0=g16
 Initial command:
 /share/apps/gaussian/g16/l1.exe "/tmp/55477.mgr/Gau-319277.inp" -scrdir="/tmp/55477.mgr/"
 Entering Link 1 = /share/apps/gaussian/g16/l1.exe PID=    319278.
  
 Copyright (c) 1988,1990,1992,1993,1995,1998,2003,2009,2016,
            Gaussian, Inc.  All Rights Reserved.
  
 This is part of the Gaussian(R) 16 program.  It is based on
 the Gaussian(R) 09 system (copyright 2009, Gaussian, Inc.),
 the Gaussian(R) 03 system (copyright 2003, Gaussian, Inc.),
 the Gaussian(R) 98 system (copyright 1998, Gaussian, Inc.),
 the Gaussian(R) 94 system (copyright 1995, Gaussian, Inc.),
 the Gaussian 92(TM) system (copyright 1992, Gaussian, Inc.),
 the Gaussian 90(TM) system (copyright 1990, Gaussian, Inc.),
 the Gaussian 88(TM) system (copyright 1988, Gaussian, Inc.),
 the Gaussian 86(TM) system (copyright 1986, Carnegie Mellon
 University), and the Gaussian 82(TM) system (copyright 1983,
 Carnegie Mellon University). Gaussian is a federally registered
 trademark of Gaussian, Inc.
  
 This software contains proprietary and confidential information,
 including trade secrets, belonging to Gaussian, Inc.
  
 This software is provided under written license and may be
 used, copied, transmitted, or stored only in accord with that
 written license.
  
 The following legend is applicable only to US Government
 contracts under FAR:
  
                    RESTRICTED RIGHTS LEGEND
  
 Use, reproduction and disclosure by the US Government is
 subject to restrictions as set forth in subparagraphs (a)
 and (c) of the Commercial Computer Software - Restricted
 Rights clause in FAR 52.227-19.
  
 Gaussian, Inc.
 340 Quinnipiac St., Bldg. 40, Wallingford CT 06492
  
  
 ---------------------------------------------------------------
 Warning -- This program may not be used in any manner that
 competes with the business of Gaussian, Inc. or will provide
 assistance to any competitor of Gaussian, Inc.  The licensee
 of this program is prohibited from giving any competitor of
 Gaussian, Inc. access to this program.  By using this program,
 the user acknowledges that Gaussian, Inc. is engaged in the
 business of creating and licensing software in the field of
 computational chemistry and represents and warrants to the
 licensee that it is not a competitor of Gaussian, Inc. and that
 it will not use this program in any manner prohibited above.
 ---------------------------------------------------------------
  

 Cite this work as:
 Gaussian 16, Revision A.03,
 M. J. Frisch, G. W. Trucks, H. B. Schlegel, G. E. Scuseria, 
 M. A. Robb, J. R. Cheeseman, G. Scalmani, V. Barone, 
 G. A. Petersson, H. Nakatsuji, X. Li, M. Caricato, A. V. Marenich, 
 J. Bloino, B. G. Janesko, R. Gomperts, B. Mennucci, H. P. Hratchian, 
 J. V. Ortiz, A. F. Izmaylov, J. L. Sonnenberg, D. Williams-Young, 
 F. Ding, F. Lipparini, F. Egidi, J. Goings, B. Peng, A. Petrone, 
 T. Henderson, D. Ranasinghe, V. G. Zakrzewski, J. Gao, N. Rega, 
 G. Zheng, W. Liang, M. Hada, M. Ehara, K. Toyota, R. Fukuda, 
 J. Hasegawa, M. Ishida, T. Nakajima, Y. Honda, O. Kitao, H. Nakai, 
 T. Vreven, K. Throssell, J. A. Montgomery, Jr., J. E. Peralta, 
 F. Ogliaro, M. J. Bearpark, J. J. Heyd, E. N. Brothers, K. N. Kudin, 
 V. N. Staroverov, T. A. Keith, R. Kobayashi, J. Normand, 
 K. Raghavachari, A. P. Rendell, J. C. Burant, S. S. Iyengar, 
 J. Tomasi, M. Cossi, J. M. Millam, M. Klene, C. Adamo, R. Cammi, 
 J. W. Ochterski, R. L. Martin, K. Morokuma, O. Farkas, 
 J. B. Foresman, and D. J. Fox, Gaussian, Inc., Wallingford CT, 2016.
 
 ******************************************
 Gaussian 16:  ES64L-G16RevA.03 25-Dec-2016
                 5-Jun-2019 
 ******************************************
 %nprocshared=2
 Will use up to    2 processors via shared memory.
 %mem=2GB
 ----------------
 # 6-31g(d) wb97x
 ----------------
 1/38=1,172=1/1;
 2/12=2,17=6,18=5,40=1/2;
 3/5=1,6=6,7=1,11=2,25=1,30=1,74=-57/1,2,3;
 4//1;
 5/5=2,38=5/2;
 6/7=2,8=2,9=2,10=2,28=1/1;
 99/5=1,9=1/99;
 ---------------------
 tmpdir/M2_ref_156.gjf
 ---------------------
 Symbolic Z-matrix:
 Charge =  0 Multiplicity = 1
 C                     5.23708  -1.28224   15.46829 
 C                     5.55769  -0.09244   14.82461 
 C                     3.9083   -1.83308   15.50014 
 H                     6.00505  -1.85937   15.9821 
 H                     6.57686   0.27435   14.79763 
 C                     4.50745   0.57551   14.19911 
 
                          Input orientation:                          
 ---------------------------------------------------------------------
 Center     Atomic      Atomic             Coordinates (Angstroms)
 Number     Number       Type             X           Y           Z
 ---------------------------------------------------------------------
      1          6           0        5.237079   -1.282241   15.468294
      2          6           0        5.557686   -0.092444   14.824609
      3          6           0        3.908303   -1.833077   15.500137
      4          1           0        6.005048   -1.859366   15.982097
      5          1           0        6.576856    0.274349   14.797633
      6          6           0        4.507447    0.575506   14.199113
 ---------------------------------------------------------------------
                    Distance matrix (angstroms):
                    1          2          3          4          5
     1  C    0.000000
     2  C    1.390229   0.000000
     3  C    1.438777   2.491306   0.000000
     4  H    1.089423   2.159149   2.151584   0.000000
     5  H    2.160500   1.083500   3.472165   2.506523   0.000000
     6  C    2.365250   1.392984   2.802304   3.369042   2.175172
                    6
     6  C    0.000000
 Stoichiometry    C4H2
 Framework group  C1[X(C4H2)]
 Deg. of freedom    12
 Full point group                 C1      NOp   1
 Largest Abelian subgroup         C1      NOp   1
 Largest concise Abelian subgroup C1      NOp   1
                         Standard orientation:                         
 ---------------------------------------------------------------------
 Center     Atomic      Atomic             Coordinates (Angstroms)
 Number     Number       Type             X           Y           Z
 ---------------------------------------------------------------------
      1          6           0       -0.645914    0.505620   -0.003800
      2          6           0        0.744066    0.479446   -0.001196
      3          6           0       -1.460996   -0.679986    0.003885
      4          1           0       -1.182868    1.453522   -0.006393
      5          1           0        1.322800    1.395114    0.023126
      6          6           0        1.339523   -0.779853   -0.001678
 ---------------------------------------------------------------------
 Rotational constants (GHZ):          22.3574584           8.1551315           5.9756327
 Standard basis: 6-31G(d) (6D, 7F)
 There are    64 symmetry adapted cartesian basis functions of A   symmetry.
 There are    64 symmetry adapted basis functions of A   symmetry.
    64 basis functions,   120 primitive gaussians,    64 cartesian basis functions
    13 alpha electrons       13 beta electrons
       nuclear repulsion energy        76.9070904739 Hartrees.
 NAtoms=    6 NActive=    6 NUniq=    6 SFac= 1.00D+00 NAtFMM=   60 NAOKFM=F Big=F
 Integral buffers will be    131072 words long.
 Raffenetti 2 integral format.
 Two-electron integral symmetry is turned on.
 One-electron integrals computed using PRISM.
 NBasis=    64 RedAO= T EigKep=  3.26D-03  NBF=    64
 NBsUse=    64 1.00D-06 EigRej= -1.00D+00 NBFU=    64
 ExpMin= 1.61D-01 ExpMax= 3.05D+03 ExpMxC= 4.57D+02 IAcc=3 IRadAn=         5 AccDes= 0.00D+00
 Harris functional with IExCor= 4538 and IRadAn=       5 diagonalized for initial guess.
 HarFok:  IExCor= 4538 AccDes= 0.00D+00 IRadAn=         5 IDoV= 1 UseB2=F ITyADJ=14
 ICtDFT=  3500011 ScaDFX=  1.000000  1.000000  1.000000  1.000000
 FoFCou: FMM=F IPFlag=           0 FMFlag=      100000 FMFlg1=           0
         NFxFlg=           0 DoJE=T BraDBF=F KetDBF=T FulRan=T
         wScrn=  0.000000 ICntrl=       500 IOpCl=  0 I1Cent=   200000004 NGrid=           0
         NMat0=    1 NMatS0=      1 NMatT0=    0 NMatD0=    1 NMtDS0=    0 NMtDT0=    0
 Petite list used in FoFCou.
 Keep R1 ints in memory in canonical form, NReq=6104720.
 Requested convergence on RMS density matrix=1.00D-08 within 128 cycles.
 Requested convergence on MAX density matrix=1.00D-06.
 Requested convergence on             energy=1.00D-06.
 No special actions if energy rises.
 Integral accuracy reduced to 1.0D-05 until final iterations.
 Initial convergence to 1.0D-05 achieved.  Increase integral accuracy.
 SCF Done:  E(RwB97X) =  -153.239110781     A.U. after   20 cycles
            NFock= 20  Conv=0.54D-08     -V/T= 2.0102

 **********************************************************************

            Population analysis using the SCF density.

 **********************************************************************

 Orbital symmetries:
       Occupied  (A) (A) (A) (A) (A) (A) (A) (A) (A) (A) (A) (A)
                 (A)
       Virtual   (A) (A) (A) (A) (A) (A) (A) (A) (A) (A) (A) (A)
                 (A) (A) (A) (A) (A) (A) (A) (A) (A) (A) (A) (A)
                 (A) (A) (A) (A) (A) (A) (A) (A) (A) (A) (A) (A)
                 (A) (A) (A) (A) (A) (A) (A) (A) (A) (A) (A) (A)
                 (A) (A) (A)
 The electronic state is 1-A.
 Alpha  occ. eigenvalues --  -10.36745 -10.36462 -10.31616 -10.31152  -0.97697
 Alpha  occ. eigenvalues --   -0.83922  -0.72128  -0.60691  -0.59129  -0.46467
 Alpha  occ. eigenvalues --   -0.42567  -0.40050  -0.32821
 Alpha virt. eigenvalues --   -0.03481   0.00558   0.02085   0.16351   0.20991
 Alpha virt. eigenvalues --    0.25028   0.34026   0.45612   0.47071   0.59027
 Alpha virt. eigenvalues --    0.61050   0.63078   0.66015   0.66623   0.69323
 Alpha virt. eigenvalues --    0.69372   0.70985   0.72277   0.77468   0.80384
 Alpha virt. eigenvalues --    0.83589   0.94196   0.97351   1.04215   1.05221
 Alpha virt. eigenvalues --    1.22550   1.33387   1.41018   1.50753   1.59717
 Alpha virt. eigenvalues --    1.75425   1.77789   1.83100   1.83691   1.86086
 Alpha virt. eigenvalues --    1.94139   1.98545   2.08695   2.22351   2.26442
 Alpha virt. eigenvalues --    2.33027   2.35722   2.55924   2.62611   2.65354
 Alpha virt. eigenvalues --    2.87581   3.03947   4.05298   4.12784   4.24946
 Alpha virt. eigenvalues --    4.51558
          Condensed to atoms (all electrons):
               1          2          3          4          5          6
     1  C    5.141363   0.378287   0.487023   0.349911  -0.017870  -0.045081
     2  C    0.378287   5.073785  -0.046753  -0.017614   0.349873   0.511553
     3  C    0.487023  -0.046753   5.529068  -0.013115   0.002699   0.000089
     4  H    0.349911  -0.017614  -0.013115   0.452228  -0.006815   0.002655
     5  H   -0.017870   0.349873   0.002699  -0.006815   0.452950  -0.015076
     6  C   -0.045081   0.511553   0.000089   0.002655  -0.015076   5.511073
 Mulliken charges:
               1
     1  C   -0.293633
     2  C   -0.249131
     3  C    0.040989
     4  H    0.232750
     5  H    0.234239
     6  C    0.034787
 Sum of Mulliken charges =  -0.00000
 Mulliken charges with hydrogens summed into heavy atoms:
               1
     1  C   -0.060883
     2  C   -0.014892
     3  C    0.040989
     6  C    0.034787
 Electronic spatial extent (au):  <R**2>=            218.4597
 Charge=             -0.0000 electrons
 Dipole moment (field-independent basis, Debye):
    X=              0.3901    Y=              3.3736    Z=              0.0192  Tot=              3.3962
 Quadrupole moment (field-independent basis, Debye-Ang):
   XX=            -24.1477   YY=            -23.4457   ZZ=            -25.5675
   XY=             -0.0731   XZ=              0.0906   YZ=              0.0341
 Traceless Quadrupole moment (field-independent basis, Debye-Ang):
   XX=              0.2393   YY=              0.9413   ZZ=             -1.1805
   XY=             -0.0731   XZ=              0.0906   YZ=              0.0341
 Octapole moment (field-independent basis, Debye-Ang**2):
  XXX=              4.0943  YYY=             14.5568  ZZZ=              0.0229  XYY=             -0.1691
  XXY=             13.3485  XXZ=              0.0771  XZZ=              0.3836  YZZ=              1.7277
  YYZ=              0.0443  XYZ=              0.0302
 Hexadecapole moment (field-independent basis, Debye-Ang**3):
 XXXX=           -199.5273 YYYY=            -94.2178 ZZZZ=            -27.4954 XXXY=             -3.5320
 XXXZ=              0.4074 YYYX=              1.8083 YYYZ=              0.0988 ZZZX=              0.0905
 ZZZY=              0.0306 XXYY=            -57.7680 XXZZ=            -41.7801 YYZZ=            -21.2737
 XXYZ=              0.0653 YYXZ=              0.1373 ZZXY=              0.0108
 N-N= 7.690709047394D+01 E-N=-5.083358721984D+02  KE= 1.516869140397D+02
 1\1\GINC-NODE91\SP\RwB97X\6-31G(d)\C4H2\YANZ\05-Jun-2019\0\\# 6-31g(d)
  wb97x\\tmpdir/M2_ref_156.gjf\\0,1\C,0,5.237079,-1.282241,15.468294\C,
 0,5.557686,-0.092444,14.824609\C,0,3.90830324,-1.83307741,15.50013682\
 H,0,6.005048,-1.859366,15.982097\H,0,6.576856,0.274349,14.797633\C,0,4
 .507447,0.575506,14.199113\\Version=ES64L-G16RevA.03\State=1-A\HF=-153
 .2391108\RMSD=5.366e-09\Dipole=1.3021212,-0.0401059,0.2969681\Quadrupo
 le=0.6041753,-0.1247743,-0.479401,-0.0185339,0.2835972,-0.5177064\PG=C
 01 [X(C4H2)]\\@


 "WHERE SHALL I START, PLEASE YOUR MAJESTY?" HE ASKED.
 "BEGIN AT THE BEGINNING," THE KING SAID GRAVELY,
 "AND GO ON TILL YOU COME TO THE END: THEN STOP." 

                                      -- LEWIS CARROLL
 Job cpu time:       0 days  0 hours  0 minutes 17.9 seconds.
 Elapsed time:       0 days  0 hours  0 minutes  9.1 seconds.
 File lengths (MBytes):  RWF=      6 Int=      0 D2E=      0 Chk=      1 Scr=      1
 Normal termination of Gaussian 16 at Wed Jun  5 16:58:20 2019.
