 Entering Gaussian System, Link 0=g16
 Initial command:
 /share/apps/gaussian/g16/l1.exe "/tmp/55477.mgr/Gau-319227.inp" -scrdir="/tmp/55477.mgr/"
 Entering Link 1 = /share/apps/gaussian/g16/l1.exe PID=    319228.
  
 Copyright (c) 1988,1990,1992,1993,1995,1998,2003,2009,2016,
            Gaussian, Inc.  All Rights Reserved.
  
 This is part of the Gaussian(R) 16 program.  It is based on
 the Gaussian(R) 09 system (copyright 2009, Gaussian, Inc.),
 the Gaussian(R) 03 system (copyright 2003, Gaussian, Inc.),
 the Gaussian(R) 98 system (copyright 1998, Gaussian, Inc.),
 the Gaussian(R) 94 system (copyright 1995, Gaussian, Inc.),
 the Gaussian 92(TM) system (copyright 1992, Gaussian, Inc.),
 the Gaussian 90(TM) system (copyright 1990, Gaussian, Inc.),
 the Gaussian 88(TM) system (copyright 1988, Gaussian, Inc.),
 the Gaussian 86(TM) system (copyright 1986, Carnegie Mellon
 University), and the Gaussian 82(TM) system (copyright 1983,
 Carnegie Mellon University). Gaussian is a federally registered
 trademark of Gaussian, Inc.
  
 This software contains proprietary and confidential information,
 including trade secrets, belonging to Gaussian, Inc.
  
 This software is provided under written license and may be
 used, copied, transmitted, or stored only in accord with that
 written license.
  
 The following legend is applicable only to US Government
 contracts under FAR:
  
                    RESTRICTED RIGHTS LEGEND
  
 Use, reproduction and disclosure by the US Government is
 subject to restrictions as set forth in subparagraphs (a)
 and (c) of the Commercial Computer Software - Restricted
 Rights clause in FAR 52.227-19.
  
 Gaussian, Inc.
 340 Quinnipiac St., Bldg. 40, Wallingford CT 06492
  
  
 ---------------------------------------------------------------
 Warning -- This program may not be used in any manner that
 competes with the business of Gaussian, Inc. or will provide
 assistance to any competitor of Gaussian, Inc.  The licensee
 of this program is prohibited from giving any competitor of
 Gaussian, Inc. access to this program.  By using this program,
 the user acknowledges that Gaussian, Inc. is engaged in the
 business of creating and licensing software in the field of
 computational chemistry and represents and warrants to the
 licensee that it is not a competitor of Gaussian, Inc. and that
 it will not use this program in any manner prohibited above.
 ---------------------------------------------------------------
  

 Cite this work as:
 Gaussian 16, Revision A.03,
 M. J. Frisch, G. W. Trucks, H. B. Schlegel, G. E. Scuseria, 
 M. A. Robb, J. R. Cheeseman, G. Scalmani, V. Barone, 
 G. A. Petersson, H. Nakatsuji, X. Li, M. Caricato, A. V. Marenich, 
 J. Bloino, B. G. Janesko, R. Gomperts, B. Mennucci, H. P. Hratchian, 
 J. V. Ortiz, A. F. Izmaylov, J. L. Sonnenberg, D. Williams-Young, 
 F. Ding, F. Lipparini, F. Egidi, J. Goings, B. Peng, A. Petrone, 
 T. Henderson, D. Ranasinghe, V. G. Zakrzewski, J. Gao, N. Rega, 
 G. Zheng, W. Liang, M. Hada, M. Ehara, K. Toyota, R. Fukuda, 
 J. Hasegawa, M. Ishida, T. Nakajima, Y. Honda, O. Kitao, H. Nakai, 
 T. Vreven, K. Throssell, J. A. Montgomery, Jr., J. E. Peralta, 
 F. Ogliaro, M. J. Bearpark, J. J. Heyd, E. N. Brothers, K. N. Kudin, 
 V. N. Staroverov, T. A. Keith, R. Kobayashi, J. Normand, 
 K. Raghavachari, A. P. Rendell, J. C. Burant, S. S. Iyengar, 
 J. Tomasi, M. Cossi, J. M. Millam, M. Klene, C. Adamo, R. Cammi, 
 J. W. Ochterski, R. L. Martin, K. Morokuma, O. Farkas, 
 J. B. Foresman, and D. J. Fox, Gaussian, Inc., Wallingford CT, 2016.
 
 ******************************************
 Gaussian 16:  ES64L-G16RevA.03 25-Dec-2016
                 5-Jun-2019 
 ******************************************
 %nprocshared=2
 Will use up to    2 processors via shared memory.
 %mem=2GB
 ----------------
 # 6-31g(d) wb97x
 ----------------
 1/38=1,172=1/1;
 2/12=2,17=6,18=5,40=1/2;
 3/5=1,6=6,7=1,11=2,25=1,30=1,74=-57/1,2,3;
 4//1;
 5/5=2,38=5/2;
 6/7=2,8=2,9=2,10=2,28=1/1;
 99/5=1,9=1/99;
 ---------------------
 tmpdir/M2_ref_126.gjf
 ---------------------
 Symbolic Z-matrix:
 Charge =  0 Multiplicity = 1
 C                    -1.76035  -1.78362   14.20776 
 C                    -0.50593  -2.12139   14.70001 
 C                     0.58085  -1.27787   14.38415 
 O                    -1.93928  -0.79195   13.51358 
 H                    -2.60631  -2.42489   14.44605 
 H                    -0.37455  -3.01452   15.31378 
 H                     0.44494  -0.45314   13.81481 
 H                     1.56227  -1.57112   14.79086 
 
                          Input orientation:                          
 ---------------------------------------------------------------------
 Center     Atomic      Atomic             Coordinates (Angstroms)
 Number     Number       Type             X           Y           Z
 ---------------------------------------------------------------------
      1          6           0       -1.760345   -1.783623   14.207761
      2          6           0       -0.505932   -2.121388   14.700008
      3          6           0        0.580851   -1.277869   14.384148
      4          8           0       -1.939285   -0.791953   13.513585
      5          1           0       -2.606307   -2.424887   14.446048
      6          1           0       -0.374547   -3.014520   15.313779
      7          1           0        0.444937   -0.453143   13.814809
      8          1           0        1.562266   -1.571121   14.790858
 ---------------------------------------------------------------------
                    Distance matrix (angstroms):
                    1          2          3          4          5
     1  C    0.000000
     2  C    1.389224   0.000000
     3  C    2.401687   1.411520   0.000000
     4  O    1.223646   2.286810   2.710181   0.000000
     5  H    1.087958   2.137331   3.387840   1.995214   0.000000
     6  H    2.158430   1.091632   2.189282   3.260201   2.466045
     7  H    2.605352   2.114420   1.011332   2.426941   3.687320
     8  H    3.380074   2.142076   1.102082   3.807806   4.269053
                    6          7          8
     6  H    0.000000
     7  H    3.078817   0.000000
     8  H    2.471455   1.857679   0.000000
 Stoichiometry    C3H4O
 Framework group  C1[X(C3H4O)]
 Deg. of freedom    18
 Full point group                 C1      NOp   1
 Largest Abelian subgroup         C1      NOp   1
 Largest concise Abelian subgroup C1      NOp   1
                         Standard orientation:                         
 ---------------------------------------------------------------------
 Center     Atomic      Atomic             Coordinates (Angstroms)
 Number     Number       Type             X           Y           Z
 ---------------------------------------------------------------------
      1          6           0        0.786374    0.476768    0.001613
      2          6           0       -0.591457    0.654301   -0.001053
      3          6           0       -1.409485   -0.496011    0.000402
      4          8           0        1.297120   -0.635186   -0.001053
      5          1           0        1.427484    1.355762    0.002538
      6          1           0       -1.019923    1.658331   -0.002712
      7          1           0       -0.999280   -1.420413    0.002429
      8          1           0       -2.497830   -0.322546    0.000395
 ---------------------------------------------------------------------
 Rotational constants (GHZ):          21.1554922           6.9500913           5.2314465
 Standard basis: 6-31G(d) (6D, 7F)
 There are    68 symmetry adapted cartesian basis functions of A   symmetry.
 There are    68 symmetry adapted basis functions of A   symmetry.
    68 basis functions,   128 primitive gaussians,    68 cartesian basis functions
    15 alpha electrons       15 beta electrons
       nuclear repulsion energy       106.1416816906 Hartrees.
 NAtoms=    8 NActive=    8 NUniq=    8 SFac= 1.00D+00 NAtFMM=   60 NAOKFM=F Big=F
 Integral buffers will be    131072 words long.
 Raffenetti 2 integral format.
 Two-electron integral symmetry is turned on.
 One-electron integrals computed using PRISM.
 NBasis=    68 RedAO= T EigKep=  2.93D-03  NBF=    68
 NBsUse=    68 1.00D-06 EigRej= -1.00D+00 NBFU=    68
 ExpMin= 1.61D-01 ExpMax= 5.48D+03 ExpMxC= 8.25D+02 IAcc=3 IRadAn=         5 AccDes= 0.00D+00
 Harris functional with IExCor= 4538 and IRadAn=       5 diagonalized for initial guess.
 HarFok:  IExCor= 4538 AccDes= 0.00D+00 IRadAn=         5 IDoV= 1 UseB2=F ITyADJ=14
 ICtDFT=  3500011 ScaDFX=  1.000000  1.000000  1.000000  1.000000
 FoFCou: FMM=F IPFlag=           0 FMFlag=      100000 FMFlg1=           0
         NFxFlg=           0 DoJE=T BraDBF=F KetDBF=T FulRan=T
         wScrn=  0.000000 ICntrl=       500 IOpCl=  0 I1Cent=   200000004 NGrid=           0
         NMat0=    1 NMatS0=      1 NMatT0=    0 NMatD0=    1 NMtDS0=    0 NMtDT0=    0
 Petite list used in FoFCou.
 Keep R1 ints in memory in canonical form, NReq=7290824.
 Requested convergence on RMS density matrix=1.00D-08 within 128 cycles.
 Requested convergence on MAX density matrix=1.00D-06.
 Requested convergence on             energy=1.00D-06.
 No special actions if energy rises.
 Integral accuracy reduced to 1.0D-05 until final iterations.
 Initial convergence to 1.0D-05 achieved.  Increase integral accuracy.
 SCF Done:  E(RwB97X) =  -191.834923736     A.U. after   15 cycles
            NFock= 15  Conv=0.36D-08     -V/T= 2.0085

 **********************************************************************

            Population analysis using the SCF density.

 **********************************************************************

 Orbital symmetries:
       Occupied  (A) (A) (A) (A) (A) (A) (A) (A) (A) (A) (A) (A)
                 (A) (A) (A)
       Virtual   (A) (A) (A) (A) (A) (A) (A) (A) (A) (A) (A) (A)
                 (A) (A) (A) (A) (A) (A) (A) (A) (A) (A) (A) (A)
                 (A) (A) (A) (A) (A) (A) (A) (A) (A) (A) (A) (A)
                 (A) (A) (A) (A) (A) (A) (A) (A) (A) (A) (A) (A)
                 (A) (A) (A) (A) (A)
 The electronic state is 1-A.
 Alpha  occ. eigenvalues --  -19.20356 -10.34843 -10.30578 -10.29037  -1.15950
 Alpha  occ. eigenvalues --   -0.92110  -0.79510  -0.66340  -0.63272  -0.55737
 Alpha  occ. eigenvalues --   -0.51714  -0.50524  -0.49819  -0.36887  -0.35579
 Alpha virt. eigenvalues --    0.00886   0.17356   0.20050   0.23606   0.26862
 Alpha virt. eigenvalues --    0.30247   0.34889   0.40555   0.45920   0.62076
 Alpha virt. eigenvalues --    0.63685   0.68787   0.68807   0.70585   0.73811
 Alpha virt. eigenvalues --    0.74910   0.80800   0.92569   0.95593   0.97344
 Alpha virt. eigenvalues --    0.98514   1.03099   1.08524   1.11068   1.20477
 Alpha virt. eigenvalues --    1.22782   1.25764   1.38704   1.43563   1.51777
 Alpha virt. eigenvalues --    1.65765   1.66416   1.75305   1.86967   1.95037
 Alpha virt. eigenvalues --    1.95912   2.04461   2.05898   2.18806   2.31595
 Alpha virt. eigenvalues --    2.32918   2.41143   2.41536   2.63784   2.64471
 Alpha virt. eigenvalues --    2.73880   2.88110   3.03109   3.19262   3.98171
 Alpha virt. eigenvalues --    4.20745   4.28563   4.51140
          Condensed to atoms (all electrons):
               1          2          3          4          5          6
     1  C    4.550844   0.327288  -0.027769   0.580436   0.382739  -0.025307
     2  C    0.327288   5.236558   0.570464  -0.104241  -0.118160   0.359075
     3  C   -0.027769   0.570464   5.027570  -0.001863   0.008218  -0.033638
     4  O    0.580436  -0.104241  -0.001863   7.980928  -0.056791   0.003006
     5  H    0.382739  -0.118160   0.008218  -0.056791   0.652560   0.001625
     6  H   -0.025307   0.359075  -0.033638   0.003006   0.001625   0.521445
     7  H   -0.008022  -0.035683   0.386310   0.015239   0.000581   0.003296
     8  H    0.003985  -0.034055   0.368053   0.000609  -0.000042  -0.002873
               7          8
     1  C   -0.008022   0.003985
     2  C   -0.035683  -0.034055
     3  C    0.386310   0.368053
     4  O    0.015239   0.000609
     5  H    0.000581  -0.000042
     6  H    0.003296  -0.002873
     7  H    0.445139  -0.025088
     8  H   -0.025088   0.510168
 Mulliken charges:
               1
     1  C    0.215806
     2  C   -0.201246
     3  C   -0.297345
     4  O   -0.417324
     5  H    0.129269
     6  H    0.173371
     7  H    0.218227
     8  H    0.179242
 Sum of Mulliken charges =  -0.00000
 Mulliken charges with hydrogens summed into heavy atoms:
               1
     1  C    0.345075
     2  C   -0.027875
     3  C    0.100124
     4  O   -0.417324
 Electronic spatial extent (au):  <R**2>=            254.6913
 Charge=             -0.0000 electrons
 Dipole moment (field-independent basis, Debye):
    X=             -2.2106    Y=              1.6860    Z=              0.0054  Tot=              2.7802
 Quadrupole moment (field-independent basis, Debye-Ang):
   XX=            -23.4191   YY=            -21.7274   ZZ=            -24.3545
   XY=              2.9834   XZ=              0.0036   YZ=             -0.0066
 Traceless Quadrupole moment (field-independent basis, Debye-Ang):
   XX=             -0.2521   YY=              1.4396   ZZ=             -1.1875
   XY=              2.9834   XZ=              0.0036   YZ=             -0.0066
 Octapole moment (field-independent basis, Debye-Ang**2):
  XXX=             -5.3500  YYY=             -0.8786  ZZZ=              0.0002  XYY=             -0.5909
  XXY=              2.3192  XXZ=              0.0035  XZZ=              3.3428  YZZ=             -1.1613
  YYZ=              0.0002  XYZ=              0.0052
 Hexadecapole moment (field-independent basis, Debye-Ang**3):
 XXXX=           -200.5259 YYYY=            -83.4492 ZZZZ=            -22.7312 XXXY=              3.3781
 XXXZ=             -0.0056 YYYX=             -1.8266 YYYZ=             -0.0174 ZZZX=             -0.0088
 ZZZY=              0.0006 XXYY=            -49.0648 XXZZ=            -40.5163 YYZZ=            -19.2845
 XXYZ=             -0.0070 YYXZ=              0.0030 ZZXY=             -0.6654
 N-N= 1.061416816906D+02 E-N=-6.597468292956D+02  KE= 1.902126454309D+02
 1\1\GINC-NODE91\SP\RwB97X\6-31G(d)\C3H4O1\YANZ\05-Jun-2019\0\\# 6-31g(
 d) wb97x\\tmpdir/M2_ref_126.gjf\\0,1\C,0,-1.760345,-1.783623,14.207761
 \C,0,-0.505932,-2.121388,14.700008\C,0,0.580851,-1.277869,14.384148\O,
 0,-1.93928484,-0.79195311,13.5135845\H,0,-2.606307,-2.424887,14.446048
 \H,0,-0.37454669,-3.01451999,15.31377863\H,0,0.44493706,-0.45314278,13
 .81480949\H,0,1.56226591,-1.57112106,14.79085839\\Version=ES64L-G16Rev
 A.03\State=1-A\HF=-191.8349237\RMSD=3.625e-09\Dipole=0.6407543,-0.6687
 665,0.5819129\Quadrupole=1.0282333,-0.0240672,-1.0041662,2.0082441,-0.
 9050483,-0.1214363\PG=C01 [X(C3H4O1)]\\@


 ALL PAPERS THAT YOU SAVE WILL NEVER BE NEEDED UNTIL
 SUCH TIME AS THEY ARE DISPOSED OF, WHEN THEY BECOME
 ESSENTIAL.

           -- JOHN CORCORAN IN
              PAUL DICKSON'S "THE OFFICIAL RULES"
 Job cpu time:       0 days  0 hours  0 minutes 18.6 seconds.
 Elapsed time:       0 days  0 hours  0 minutes  9.5 seconds.
 File lengths (MBytes):  RWF=      6 Int=      0 D2E=      0 Chk=      1 Scr=      1
 Normal termination of Gaussian 16 at Wed Jun  5 16:58:19 2019.
