 Entering Gaussian System, Link 0=g16
 Initial command:
 /share/apps/gaussian/g16/l1.exe "/tmp/55477.mgr/Gau-319661.inp" -scrdir="/tmp/55477.mgr/"
 Entering Link 1 = /share/apps/gaussian/g16/l1.exe PID=    319662.
  
 Copyright (c) 1988,1990,1992,1993,1995,1998,2003,2009,2016,
            Gaussian, Inc.  All Rights Reserved.
  
 This is part of the Gaussian(R) 16 program.  It is based on
 the Gaussian(R) 09 system (copyright 2009, Gaussian, Inc.),
 the Gaussian(R) 03 system (copyright 2003, Gaussian, Inc.),
 the Gaussian(R) 98 system (copyright 1998, Gaussian, Inc.),
 the Gaussian(R) 94 system (copyright 1995, Gaussian, Inc.),
 the Gaussian 92(TM) system (copyright 1992, Gaussian, Inc.),
 the Gaussian 90(TM) system (copyright 1990, Gaussian, Inc.),
 the Gaussian 88(TM) system (copyright 1988, Gaussian, Inc.),
 the Gaussian 86(TM) system (copyright 1986, Carnegie Mellon
 University), and the Gaussian 82(TM) system (copyright 1983,
 Carnegie Mellon University). Gaussian is a federally registered
 trademark of Gaussian, Inc.
  
 This software contains proprietary and confidential information,
 including trade secrets, belonging to Gaussian, Inc.
  
 This software is provided under written license and may be
 used, copied, transmitted, or stored only in accord with that
 written license.
  
 The following legend is applicable only to US Government
 contracts under FAR:
  
                    RESTRICTED RIGHTS LEGEND
  
 Use, reproduction and disclosure by the US Government is
 subject to restrictions as set forth in subparagraphs (a)
 and (c) of the Commercial Computer Software - Restricted
 Rights clause in FAR 52.227-19.
  
 Gaussian, Inc.
 340 Quinnipiac St., Bldg. 40, Wallingford CT 06492
  
  
 ---------------------------------------------------------------
 Warning -- This program may not be used in any manner that
 competes with the business of Gaussian, Inc. or will provide
 assistance to any competitor of Gaussian, Inc.  The licensee
 of this program is prohibited from giving any competitor of
 Gaussian, Inc. access to this program.  By using this program,
 the user acknowledges that Gaussian, Inc. is engaged in the
 business of creating and licensing software in the field of
 computational chemistry and represents and warrants to the
 licensee that it is not a competitor of Gaussian, Inc. and that
 it will not use this program in any manner prohibited above.
 ---------------------------------------------------------------
  

 Cite this work as:
 Gaussian 16, Revision A.03,
 M. J. Frisch, G. W. Trucks, H. B. Schlegel, G. E. Scuseria, 
 M. A. Robb, J. R. Cheeseman, G. Scalmani, V. Barone, 
 G. A. Petersson, H. Nakatsuji, X. Li, M. Caricato, A. V. Marenich, 
 J. Bloino, B. G. Janesko, R. Gomperts, B. Mennucci, H. P. Hratchian, 
 J. V. Ortiz, A. F. Izmaylov, J. L. Sonnenberg, D. Williams-Young, 
 F. Ding, F. Lipparini, F. Egidi, J. Goings, B. Peng, A. Petrone, 
 T. Henderson, D. Ranasinghe, V. G. Zakrzewski, J. Gao, N. Rega, 
 G. Zheng, W. Liang, M. Hada, M. Ehara, K. Toyota, R. Fukuda, 
 J. Hasegawa, M. Ishida, T. Nakajima, Y. Honda, O. Kitao, H. Nakai, 
 T. Vreven, K. Throssell, J. A. Montgomery, Jr., J. E. Peralta, 
 F. Ogliaro, M. J. Bearpark, J. J. Heyd, E. N. Brothers, K. N. Kudin, 
 V. N. Staroverov, T. A. Keith, R. Kobayashi, J. Normand, 
 K. Raghavachari, A. P. Rendell, J. C. Burant, S. S. Iyengar, 
 J. Tomasi, M. Cossi, J. M. Millam, M. Klene, C. Adamo, R. Cammi, 
 J. W. Ochterski, R. L. Martin, K. Morokuma, O. Farkas, 
 J. B. Foresman, and D. J. Fox, Gaussian, Inc., Wallingford CT, 2016.
 
 ******************************************
 Gaussian 16:  ES64L-G16RevA.03 25-Dec-2016
                 5-Jun-2019 
 ******************************************
 %nprocshared=2
 Will use up to    2 processors via shared memory.
 %mem=2GB
 ----------------
 # 6-31g(d) wb97x
 ----------------
 1/38=1,172=1/1;
 2/12=2,17=6,18=5,40=1/2;
 3/5=1,6=6,7=1,11=2,25=1,30=1,74=-57/1,2,3;
 4//1;
 5/5=2,38=5/2;
 6/7=2,8=2,9=2,10=2,28=1/1;
 99/5=1,9=1/99;
 ---------------------
 tmpdir/M2_ref_149.gjf
 ---------------------
 Symbolic Z-matrix:
 Charge =  0 Multiplicity = 1
 N                     1.82945  -1.65096   14.90158 
 C                     3.07472  -1.07368   14.84766 
 N                     4.01333  -1.78954   15.49762 
 H                     0.9552   -1.38973   14.53928 
 H                     1.85535  -2.50958   15.43048 
 O                     3.25499   0.029     14.23605 
 O                     5.07977  -1.34745   15.47206 
 
                          Input orientation:                          
 ---------------------------------------------------------------------
 Center     Atomic      Atomic             Coordinates (Angstroms)
 Number     Number       Type             X           Y           Z
 ---------------------------------------------------------------------
      1          7           0        1.829453   -1.650958   14.901584
      2          6           0        3.074716   -1.073680   14.847659
      3          7           0        4.013328   -1.789540   15.497620
      4          1           0        0.955196   -1.389725   14.539281
      5          1           0        1.855350   -2.509577   15.430483
      6          8           0        3.254987    0.028997   14.236054
      7          8           0        5.079773   -1.347451   15.472064
 ---------------------------------------------------------------------
                    Distance matrix (angstroms):
                    1          2          3          4          5
     1  N    0.000000
     2  C    1.373622   0.000000
     3  N    2.267989   1.347552   0.000000
     4  H    0.981749   2.165028   3.229619   0.000000
     5  H    1.008777   1.971887   2.275924   1.690736   0.000000
     6  O    2.301592   1.273756   2.339595   2.719147   3.135283
     7  O    3.313932   2.117802   1.154730   4.228949   3.427706
                    6          7
     6  O    0.000000
     7  O    2.598495   0.000000
 Stoichiometry    CH2N2O2
 Framework group  C1[X(CH2N2O2)]
 Deg. of freedom    15
 Full point group                 C1      NOp   1
 Largest Abelian subgroup         C1      NOp   1
 Largest concise Abelian subgroup C1      NOp   1
                         Standard orientation:                         
 ---------------------------------------------------------------------
 Center     Atomic      Atomic             Coordinates (Angstroms)
 Number     Number       Type             X           Y           Z
 ---------------------------------------------------------------------
      1          7           0       -1.515949   -0.603667   -0.002152
      2          6           0       -0.344140    0.113062   -0.000923
      3          7           0        0.750997   -0.672141    0.004461
      4          1           0       -2.461399   -0.339199   -0.005798
      5          1           0       -1.329424   -1.595001    0.007677
      6          8           0       -0.360226    1.386714    0.001782
      7          8           0        1.761517   -0.113404   -0.003344
 ---------------------------------------------------------------------
 Rotational constants (GHZ):          11.2272097           5.0004143           3.4596080
 Standard basis: 6-31G(d) (6D, 7F)
 There are    79 symmetry adapted cartesian basis functions of A   symmetry.
 There are    79 symmetry adapted basis functions of A   symmetry.
    79 basis functions,   148 primitive gaussians,    79 cartesian basis functions
    19 alpha electrons       19 beta electrons
       nuclear repulsion energy       167.9744821412 Hartrees.
 NAtoms=    7 NActive=    7 NUniq=    7 SFac= 1.00D+00 NAtFMM=   60 NAOKFM=F Big=F
 Integral buffers will be    131072 words long.
 Raffenetti 2 integral format.
 Two-electron integral symmetry is turned on.
 One-electron integrals computed using PRISM.
 NBasis=    79 RedAO= T EigKep=  2.60D-03  NBF=    79
 NBsUse=    79 1.00D-06 EigRej= -1.00D+00 NBFU=    79
 ExpMin= 1.61D-01 ExpMax= 5.48D+03 ExpMxC= 8.25D+02 IAcc=3 IRadAn=         5 AccDes= 0.00D+00
 Harris functional with IExCor= 4538 and IRadAn=       5 diagonalized for initial guess.
 HarFok:  IExCor= 4538 AccDes= 0.00D+00 IRadAn=         5 IDoV= 1 UseB2=F ITyADJ=14
 ICtDFT=  3500011 ScaDFX=  1.000000  1.000000  1.000000  1.000000
 FoFCou: FMM=F IPFlag=           0 FMFlag=      100000 FMFlg1=           0
         NFxFlg=           0 DoJE=T BraDBF=F KetDBF=T FulRan=T
         wScrn=  0.000000 ICntrl=       500 IOpCl=  0 I1Cent=   200000004 NGrid=           0
         NMat0=    1 NMatS0=      1 NMatT0=    0 NMatD0=    1 NMtDS0=    0 NMtDT0=    0
 Petite list used in FoFCou.
 Keep R1 ints in memory in canonical form, NReq=11790360.
 Requested convergence on RMS density matrix=1.00D-08 within 128 cycles.
 Requested convergence on MAX density matrix=1.00D-06.
 Requested convergence on             energy=1.00D-06.
 No special actions if energy rises.
 Integral accuracy reduced to 1.0D-05 until final iterations.
 Initial convergence to 1.0D-05 achieved.  Increase integral accuracy.
 SCF Done:  E(RwB97X) =  -299.067873520     A.U. after   20 cycles
            NFock= 20  Conv=0.57D-08     -V/T= 2.0077

 **********************************************************************

            Population analysis using the SCF density.

 **********************************************************************

 Orbital symmetries:
       Occupied  (A) (A) (A) (A) (A) (A) (A) (A) (A) (A) (A) (A)
                 (A) (A) (A) (A) (A) (A) (A)
       Virtual   (A) (A) (A) (A) (A) (A) (A) (A) (A) (A) (A) (A)
                 (A) (A) (A) (A) (A) (A) (A) (A) (A) (A) (A) (A)
                 (A) (A) (A) (A) (A) (A) (A) (A) (A) (A) (A) (A)
                 (A) (A) (A) (A) (A) (A) (A) (A) (A) (A) (A) (A)
                 (A) (A) (A) (A) (A) (A) (A) (A) (A) (A) (A) (A)
 The electronic state is 1-A.
 Alpha  occ. eigenvalues --  -19.31425 -19.20843 -14.54509 -14.46654 -10.41633
 Alpha  occ. eigenvalues --   -1.36749  -1.16419  -1.06522  -0.93860  -0.72752
 Alpha  occ. eigenvalues --   -0.67837  -0.66784  -0.63796  -0.59297  -0.53471
 Alpha  occ. eigenvalues --   -0.51052  -0.39589  -0.38859  -0.34684
 Alpha virt. eigenvalues --   -0.04149   0.15424   0.17161   0.21871   0.32122
 Alpha virt. eigenvalues --    0.38045   0.45376   0.51794   0.63315   0.66999
 Alpha virt. eigenvalues --    0.68593   0.70813   0.76577   0.79564   0.80213
 Alpha virt. eigenvalues --    0.81753   0.82903   0.91792   0.96771   0.98834
 Alpha virt. eigenvalues --    1.02432   1.03859   1.09532   1.14197   1.17031
 Alpha virt. eigenvalues --    1.25369   1.33920   1.37233   1.41487   1.44122
 Alpha virt. eigenvalues --    1.63581   1.66327   1.72309   1.73786   1.78334
 Alpha virt. eigenvalues --    1.84980   1.91668   1.93617   1.94404   2.01265
 Alpha virt. eigenvalues --    2.11356   2.16232   2.20110   2.40245   2.42916
 Alpha virt. eigenvalues --    2.53061   2.55726   2.56132   2.64669   2.78454
 Alpha virt. eigenvalues --    2.82542   2.96141   2.98749   3.16698   3.27805
 Alpha virt. eigenvalues --    3.77374   3.90919   3.98026   4.20562   4.47011
          Condensed to atoms (all electrons):
               1          2          3          4          5          6
     1  N    7.046009   0.288585  -0.109769   0.324363   0.301360  -0.096818
     2  C    0.288585   4.395477   0.157868  -0.007393  -0.034184   0.605943
     3  N   -0.109769   0.157868   6.726001   0.003139   0.022565  -0.079465
     4  H    0.324363  -0.007393   0.003139   0.310923  -0.018363   0.001720
     5  H    0.301360  -0.034184   0.022565  -0.018363   0.363872   0.003472
     6  O   -0.096818   0.605943  -0.079465   0.001720   0.003472   8.029402
     7  O    0.005578  -0.069084   0.274339  -0.000083   0.000025   0.001104
               7
     1  N    0.005578
     2  C   -0.069084
     3  N    0.274339
     4  H   -0.000083
     5  H    0.000025
     6  O    0.001104
     7  O    7.978512
 Mulliken charges:
               1
     1  N   -0.759309
     2  C    0.662788
     3  N    0.005321
     4  H    0.385695
     5  H    0.361254
     6  O   -0.465358
     7  O   -0.190391
 Sum of Mulliken charges =   0.00000
 Mulliken charges with hydrogens summed into heavy atoms:
               1
     1  N   -0.012360
     2  C    0.662788
     3  N    0.005321
     6  O   -0.465358
     7  O   -0.190391
 Electronic spatial extent (au):  <R**2>=            339.3035
 Charge=              0.0000 electrons
 Dipole moment (field-independent basis, Debye):
    X=             -2.8153    Y=             -3.0713    Z=             -0.0018  Tot=              4.1664
 Quadrupole moment (field-independent basis, Debye-Ang):
   XX=            -22.9916   YY=            -30.3496   ZZ=            -26.6116
   XY=              3.1943   XZ=              0.0032   YZ=             -0.0044
 Traceless Quadrupole moment (field-independent basis, Debye-Ang):
   XX=              3.6593   YY=             -3.6987   ZZ=              0.0394
   XY=              3.1943   XZ=              0.0032   YZ=             -0.0044
 Octapole moment (field-independent basis, Debye-Ang**2):
  XXX=            -19.7650  YYY=             -7.1446  ZZZ=              0.0025  XYY=             -2.4319
  XXY=             -2.7337  XXZ=             -0.0239  XZZ=              3.5217  YZZ=              0.8665
  YYZ=              0.0070  XYZ=              0.0632
 Hexadecapole moment (field-independent basis, Debye-Ang**3):
 XXXX=           -195.9430 YYYY=           -123.1672 ZZZZ=            -20.9916 XXXY=              8.9653
 XXXZ=              0.1229 YYYX=             10.6402 YYYZ=             -0.0322 ZZZX=             -0.0360
 ZZZY=              0.0014 XXYY=            -57.9135 XXZZ=            -44.2042 YYZZ=            -24.0802
 XXYZ=             -0.0097 YYXZ=             -0.0806 ZZXY=             -1.1860
 N-N= 1.679744821412D+02 E-N=-1.037311534331D+03  KE= 2.967935651653D+02
 1\1\GINC-NODE91\SP\RwB97X\6-31G(d)\C1H2N2O2\YANZ\05-Jun-2019\0\\# 6-31
 g(d) wb97x\\tmpdir/M2_ref_149.gjf\\0,1\N,0,1.829453,-1.650958,14.90158
 4\C,0,3.074716,-1.07368,14.847659\N,0,4.013328,-1.78954,15.49762\H,0,0
 .95519561,-1.38972519,14.539281\H,0,1.85535,-2.509577,15.430483\O,0,3.
 25498676,0.02899704,14.23605409\O,0,5.07977315,-1.34745124,15.47206368
 \\Version=ES64L-G16RevA.03\State=1-A\HF=-299.0678735\RMSD=5.679e-09\Di
 pole=-1.2589976,-1.0042534,0.3055717\Quadrupole=3.1967421,-2.195634,-1
 .0011081,1.510634,-0.1639151,1.6710725\PG=C01 [X(C1H2N2O2)]\\@


 THE UNDERLYING PHYSICAL LAWS NECESSARY FOR THE 
 MATHEMATICAL THEORY OF A LARGE PART OF PHYSICS AND THE
 WHOLE OF CHEMISTRY ARE THUS COMPLETELY KNOWN, AND THE
 DIFFICULTY IS ONLY THAT THE EXACT APPLICATION OF THESE
 LAWS LEADS TO EQUATIONS MUCH TOO COMPLICATED 
 TO BE SOLUBLE.

                                        -- P. A. M. DIRAC, 1929
 Job cpu time:       0 days  0 hours  0 minutes 26.0 seconds.
 Elapsed time:       0 days  0 hours  0 minutes 13.2 seconds.
 File lengths (MBytes):  RWF=      6 Int=      0 D2E=      0 Chk=      1 Scr=      1
 Normal termination of Gaussian 16 at Wed Jun  5 16:58:43 2019.
