 Entering Gaussian System, Link 0=g16
 Initial command:
 /share/apps/gaussian/g16/l1.exe "/tmp/55477.mgr/Gau-318829.inp" -scrdir="/tmp/55477.mgr/"
 Entering Link 1 = /share/apps/gaussian/g16/l1.exe PID=    318830.
  
 Copyright (c) 1988,1990,1992,1993,1995,1998,2003,2009,2016,
            Gaussian, Inc.  All Rights Reserved.
  
 This is part of the Gaussian(R) 16 program.  It is based on
 the Gaussian(R) 09 system (copyright 2009, Gaussian, Inc.),
 the Gaussian(R) 03 system (copyright 2003, Gaussian, Inc.),
 the Gaussian(R) 98 system (copyright 1998, Gaussian, Inc.),
 the Gaussian(R) 94 system (copyright 1995, Gaussian, Inc.),
 the Gaussian 92(TM) system (copyright 1992, Gaussian, Inc.),
 the Gaussian 90(TM) system (copyright 1990, Gaussian, Inc.),
 the Gaussian 88(TM) system (copyright 1988, Gaussian, Inc.),
 the Gaussian 86(TM) system (copyright 1986, Carnegie Mellon
 University), and the Gaussian 82(TM) system (copyright 1983,
 Carnegie Mellon University). Gaussian is a federally registered
 trademark of Gaussian, Inc.
  
 This software contains proprietary and confidential information,
 including trade secrets, belonging to Gaussian, Inc.
  
 This software is provided under written license and may be
 used, copied, transmitted, or stored only in accord with that
 written license.
  
 The following legend is applicable only to US Government
 contracts under FAR:
  
                    RESTRICTED RIGHTS LEGEND
  
 Use, reproduction and disclosure by the US Government is
 subject to restrictions as set forth in subparagraphs (a)
 and (c) of the Commercial Computer Software - Restricted
 Rights clause in FAR 52.227-19.
  
 Gaussian, Inc.
 340 Quinnipiac St., Bldg. 40, Wallingford CT 06492
  
  
 ---------------------------------------------------------------
 Warning -- This program may not be used in any manner that
 competes with the business of Gaussian, Inc. or will provide
 assistance to any competitor of Gaussian, Inc.  The licensee
 of this program is prohibited from giving any competitor of
 Gaussian, Inc. access to this program.  By using this program,
 the user acknowledges that Gaussian, Inc. is engaged in the
 business of creating and licensing software in the field of
 computational chemistry and represents and warrants to the
 licensee that it is not a competitor of Gaussian, Inc. and that
 it will not use this program in any manner prohibited above.
 ---------------------------------------------------------------
  

 Cite this work as:
 Gaussian 16, Revision A.03,
 M. J. Frisch, G. W. Trucks, H. B. Schlegel, G. E. Scuseria, 
 M. A. Robb, J. R. Cheeseman, G. Scalmani, V. Barone, 
 G. A. Petersson, H. Nakatsuji, X. Li, M. Caricato, A. V. Marenich, 
 J. Bloino, B. G. Janesko, R. Gomperts, B. Mennucci, H. P. Hratchian, 
 J. V. Ortiz, A. F. Izmaylov, J. L. Sonnenberg, D. Williams-Young, 
 F. Ding, F. Lipparini, F. Egidi, J. Goings, B. Peng, A. Petrone, 
 T. Henderson, D. Ranasinghe, V. G. Zakrzewski, J. Gao, N. Rega, 
 G. Zheng, W. Liang, M. Hada, M. Ehara, K. Toyota, R. Fukuda, 
 J. Hasegawa, M. Ishida, T. Nakajima, Y. Honda, O. Kitao, H. Nakai, 
 T. Vreven, K. Throssell, J. A. Montgomery, Jr., J. E. Peralta, 
 F. Ogliaro, M. J. Bearpark, J. J. Heyd, E. N. Brothers, K. N. Kudin, 
 V. N. Staroverov, T. A. Keith, R. Kobayashi, J. Normand, 
 K. Raghavachari, A. P. Rendell, J. C. Burant, S. S. Iyengar, 
 J. Tomasi, M. Cossi, J. M. Millam, M. Klene, C. Adamo, R. Cammi, 
 J. W. Ochterski, R. L. Martin, K. Morokuma, O. Farkas, 
 J. B. Foresman, and D. J. Fox, Gaussian, Inc., Wallingford CT, 2016.
 
 ******************************************
 Gaussian 16:  ES64L-G16RevA.03 25-Dec-2016
                 5-Jun-2019 
 ******************************************
 %nprocshared=2
 Will use up to    2 processors via shared memory.
 %mem=2GB
 ----------------
 # 6-31g(d) wb97x
 ----------------
 1/38=1,172=1/1;
 2/12=2,17=6,18=5,40=1/2;
 3/5=1,6=6,7=1,11=2,25=1,30=1,74=-57/1,2,3;
 4//1;
 5/5=2,38=5/2;
 6/7=2,8=2,9=2,10=2,28=1/1;
 99/5=1,9=1/99;
 ---------------------
 tmpdir/M2_ref_121.gjf
 ---------------------
 Symbolic Z-matrix:
 Charge =  0 Multiplicity = 1
 C                    -1.96331  -0.65879   13.42037 
 C                    -1.76035  -1.78362   14.20776 
 C                    -0.50593  -2.12139   14.70001 
 H                    -1.17915  -0.06505   13.1985 
 H                    -2.95636  -0.42654   13.04124 
 H                    -2.60631  -2.42489   14.44605 
 H                    -0.37455  -3.01452   15.31378 
 O                     0.45219  -1.37773   14.42154 
 
                          Input orientation:                          
 ---------------------------------------------------------------------
 Center     Atomic      Atomic             Coordinates (Angstroms)
 Number     Number       Type             X           Y           Z
 ---------------------------------------------------------------------
      1          6           0       -1.963313   -0.658791   13.420370
      2          6           0       -1.760345   -1.783623   14.207761
      3          6           0       -0.505932   -2.121388   14.700008
      4          1           0       -1.179145   -0.065052   13.198495
      5          1           0       -2.956356   -0.426544   13.041243
      6          1           0       -2.606307   -2.424887   14.446048
      7          1           0       -0.374547   -3.014520   15.313779
      8          8           0        0.452193   -1.377728   14.421541
 ---------------------------------------------------------------------
                    Distance matrix (angstroms):
                    1          2          3          4          5
     1  C    0.000000
     2  C    1.387958   0.000000
     3  C    2.429120   1.389224   0.000000
     4  H    1.008302   2.076029   2.633681   0.000000
     5  H    1.088030   2.152410   3.410070   1.820407   0.000000
     6  H    2.141157   1.087958   2.137331   3.026880   2.467668
     7  H    3.414474   2.158430   1.091632   3.717683   4.304390
     8  O    2.711805   2.259597   1.244419   2.424918   3.798445
                    6          7          8
     6  H    0.000000
     7  H    2.466045   0.000000
     8  O    3.232888   2.039283   0.000000
 Stoichiometry    C3H4O
 Framework group  C1[X(C3H4O)]
 Deg. of freedom    18
 Full point group                 C1      NOp   1
 Largest Abelian subgroup         C1      NOp   1
 Largest concise Abelian subgroup C1      NOp   1
                         Standard orientation:                         
 ---------------------------------------------------------------------
 Center     Atomic      Atomic             Coordinates (Angstroms)
 Number     Number       Type             X           Y           Z
 ---------------------------------------------------------------------
      1          6           0       -1.425862   -0.461909   -0.000419
      2          6           0       -0.573802    0.633728   -0.001924
      3          6           0        0.808160    0.491907    0.001440
      4          1           0       -1.033540   -1.390755    0.001004
      5          1           0       -2.504314   -0.318064    0.007271
      6          1           0       -0.997231    1.635905   -0.002179
      7          1           0        1.454596    1.371552    0.004296
      8          8           0        1.278689   -0.660124   -0.000622
 ---------------------------------------------------------------------
 Rotational constants (GHZ):          21.2877741           6.9389860           5.2331911
 Standard basis: 6-31G(d) (6D, 7F)
 There are    68 symmetry adapted cartesian basis functions of A   symmetry.
 There are    68 symmetry adapted basis functions of A   symmetry.
    68 basis functions,   128 primitive gaussians,    68 cartesian basis functions
    15 alpha electrons       15 beta electrons
       nuclear repulsion energy       106.1103063957 Hartrees.
 NAtoms=    8 NActive=    8 NUniq=    8 SFac= 1.00D+00 NAtFMM=   60 NAOKFM=F Big=F
 Integral buffers will be    131072 words long.
 Raffenetti 2 integral format.
 Two-electron integral symmetry is turned on.
 One-electron integrals computed using PRISM.
 NBasis=    68 RedAO= T EigKep=  2.79D-03  NBF=    68
 NBsUse=    68 1.00D-06 EigRej= -1.00D+00 NBFU=    68
 ExpMin= 1.61D-01 ExpMax= 5.48D+03 ExpMxC= 8.25D+02 IAcc=3 IRadAn=         5 AccDes= 0.00D+00
 Harris functional with IExCor= 4538 and IRadAn=       5 diagonalized for initial guess.
 HarFok:  IExCor= 4538 AccDes= 0.00D+00 IRadAn=         5 IDoV= 1 UseB2=F ITyADJ=14
 ICtDFT=  3500011 ScaDFX=  1.000000  1.000000  1.000000  1.000000
 FoFCou: FMM=F IPFlag=           0 FMFlag=      100000 FMFlg1=           0
         NFxFlg=           0 DoJE=T BraDBF=F KetDBF=T FulRan=T
         wScrn=  0.000000 ICntrl=       500 IOpCl=  0 I1Cent=   200000004 NGrid=           0
         NMat0=    1 NMatS0=      1 NMatT0=    0 NMatD0=    1 NMtDS0=    0 NMtDT0=    0
 Petite list used in FoFCou.
 Keep R1 ints in memory in canonical form, NReq=7290824.
 Requested convergence on RMS density matrix=1.00D-08 within 128 cycles.
 Requested convergence on MAX density matrix=1.00D-06.
 Requested convergence on             energy=1.00D-06.
 No special actions if energy rises.
 Integral accuracy reduced to 1.0D-05 until final iterations.
 Initial convergence to 1.0D-05 achieved.  Increase integral accuracy.
 SCF Done:  E(RwB97X) =  -191.835789102     A.U. after   15 cycles
            NFock= 15  Conv=0.41D-08     -V/T= 2.0085

 **********************************************************************

            Population analysis using the SCF density.

 **********************************************************************

 Orbital symmetries:
       Occupied  (A) (A) (A) (A) (A) (A) (A) (A) (A) (A) (A) (A)
                 (A) (A) (A)
       Virtual   (A) (A) (A) (A) (A) (A) (A) (A) (A) (A) (A) (A)
                 (A) (A) (A) (A) (A) (A) (A) (A) (A) (A) (A) (A)
                 (A) (A) (A) (A) (A) (A) (A) (A) (A) (A) (A) (A)
                 (A) (A) (A) (A) (A) (A) (A) (A) (A) (A) (A) (A)
                 (A) (A) (A) (A) (A)
 The electronic state is 1-A.
 Alpha  occ. eigenvalues --  -19.20535 -10.35327 -10.29920 -10.28688  -1.15097
 Alpha  occ. eigenvalues --   -0.92189  -0.79787  -0.66638  -0.63160  -0.55420
 Alpha  occ. eigenvalues --   -0.52726  -0.50158  -0.48901  -0.36940  -0.35752
 Alpha virt. eigenvalues --    0.00831   0.17238   0.20221   0.23892   0.26789
 Alpha virt. eigenvalues --    0.30412   0.34580   0.41187   0.46553   0.61996
 Alpha virt. eigenvalues --    0.63134   0.68026   0.68787   0.70641   0.74461
 Alpha virt. eigenvalues --    0.75437   0.78866   0.92511   0.96719   0.97544
 Alpha virt. eigenvalues --    0.98602   1.03847   1.09154   1.10622   1.20961
 Alpha virt. eigenvalues --    1.21449   1.25849   1.40620   1.43099   1.52388
 Alpha virt. eigenvalues --    1.63317   1.65121   1.75721   1.87958   1.95203
 Alpha virt. eigenvalues --    1.95323   2.04830   2.07524   2.18081   2.31736
 Alpha virt. eigenvalues --    2.32517   2.39965   2.44122   2.63055   2.65776
 Alpha virt. eigenvalues --    2.71562   2.88571   3.01477   3.19628   3.95408
 Alpha virt. eigenvalues --    4.21395   4.27488   4.51238
          Condensed to atoms (all electrons):
               1          2          3          4          5          6
     1  C    5.010764   0.596127  -0.028552   0.385178   0.369498  -0.037908
     2  C    0.596127   5.185014   0.339968  -0.036391  -0.030509   0.354172
     3  C   -0.028552   0.339968   4.577210  -0.008517   0.003667  -0.027585
     4  H    0.385178  -0.036391  -0.008517   0.454386  -0.027555   0.004119
     5  H    0.369498  -0.030509   0.003667  -0.027555   0.505288  -0.003319
     6  H   -0.037908   0.354172  -0.027585   0.004119  -0.003319   0.541239
     7  H    0.006832  -0.108801   0.376893   0.000493  -0.000022   0.002403
     8  O   -0.003972  -0.109330   0.557913   0.015877   0.000649   0.003704
               7          8
     1  C    0.006832  -0.003972
     2  C   -0.108801  -0.109330
     3  C    0.376893   0.557913
     4  H    0.000493   0.015877
     5  H   -0.000022   0.000649
     6  H    0.002403   0.003704
     7  H    0.626969  -0.049169
     8  O   -0.049169   8.007404
 Mulliken charges:
               1
     1  C   -0.297967
     2  C   -0.190251
     3  C    0.209003
     4  H    0.212411
     5  H    0.182303
     6  H    0.163174
     7  H    0.144402
     8  O   -0.423076
 Sum of Mulliken charges =  -0.00000
 Mulliken charges with hydrogens summed into heavy atoms:
               1
     1  C    0.096747
     2  C   -0.027076
     3  C    0.353405
     8  O   -0.423076
 Electronic spatial extent (au):  <R**2>=            254.4918
 Charge=             -0.0000 electrons
 Dipole moment (field-independent basis, Debye):
    X=             -2.0687    Y=              1.8044    Z=              0.0099  Tot=              2.7450
 Quadrupole moment (field-independent basis, Debye-Ang):
   XX=            -23.0686   YY=            -21.8792   ZZ=            -24.3200
   XY=              3.3670   XZ=             -0.0116   YZ=             -0.0030
 Traceless Quadrupole moment (field-independent basis, Debye-Ang):
   XX=              0.0207   YY=              1.2100   ZZ=             -1.2307
   XY=              3.3670   XZ=             -0.0116   YZ=             -0.0030
 Octapole moment (field-independent basis, Debye-Ang**2):
  XXX=             -5.5898  YYY=             -0.8096  ZZZ=              0.0095  XYY=             -0.1535
  XXY=              2.3254  XXZ=              0.0457  XZZ=              3.2050  YZZ=             -1.1719
  YYZ=              0.0050  XYZ=              0.0091
 Hexadecapole moment (field-independent basis, Debye-Ang**3):
 XXXX=           -199.1888 YYYY=            -83.4247 ZZZZ=            -22.6535 XXXY=              4.9704
 XXXZ=             -0.1241 YYYX=             -0.7337 YYYZ=             -0.0069 ZZZX=             -0.0198
 ZZZY=              0.0014 XXYY=            -48.7141 XXZZ=            -40.5085 YYZZ=            -19.1034
 XXYZ=             -0.0079 YYXZ=              0.0014 ZZXY=             -0.5936
 N-N= 1.061103063957D+02 E-N=-6.597100591041D+02  KE= 1.902174954217D+02
 1\1\GINC-NODE91\SP\RwB97X\6-31G(d)\C3H4O1\YANZ\05-Jun-2019\0\\# 6-31g(
 d) wb97x\\tmpdir/M2_ref_121.gjf\\0,1\C,0,-1.963313,-0.658791,13.42037\
 C,0,-1.760345,-1.783623,14.207761\C,0,-0.505932,-2.121388,14.700008\H,
 0,-1.17914539,-0.06505174,13.19849532\H,0,-2.956356,-0.426544,13.04124
 3\H,0,-2.606307,-2.424887,14.446048\H,0,-0.37454669,-3.01451999,15.313
 77863\O,0,0.45219328,-1.37772815,14.42154077\\Version=ES64L-G16RevA.03
 \State=1-A\HF=-191.8357891\RMSD=4.059e-09\Dipole=-1.0393839,-0.2905571
 ,-0.0400777\Quadrupole=-1.8801647,1.5253998,0.3547649,-0.8528872,0.359
 0849,-1.7998702\PG=C01 [X(C3H4O1)]\\@


 Age does not diminish the extreme disappointment of
 having a scoop of ice cream fall from the cone.
 -- Jim Fiebig
 Job cpu time:       0 days  0 hours  0 minutes 19.0 seconds.
 Elapsed time:       0 days  0 hours  0 minutes  9.6 seconds.
 File lengths (MBytes):  RWF=      6 Int=      0 D2E=      0 Chk=      1 Scr=      1
 Normal termination of Gaussian 16 at Wed Jun  5 16:58:06 2019.
