 Entering Gaussian System, Link 0=g16
 Initial command:
 /share/apps/gaussian/g16/l1.exe "/tmp/55477.mgr/Gau-319400.inp" -scrdir="/tmp/55477.mgr/"
 Entering Link 1 = /share/apps/gaussian/g16/l1.exe PID=    319401.
  
 Copyright (c) 1988,1990,1992,1993,1995,1998,2003,2009,2016,
            Gaussian, Inc.  All Rights Reserved.
  
 This is part of the Gaussian(R) 16 program.  It is based on
 the Gaussian(R) 09 system (copyright 2009, Gaussian, Inc.),
 the Gaussian(R) 03 system (copyright 2003, Gaussian, Inc.),
 the Gaussian(R) 98 system (copyright 1998, Gaussian, Inc.),
 the Gaussian(R) 94 system (copyright 1995, Gaussian, Inc.),
 the Gaussian 92(TM) system (copyright 1992, Gaussian, Inc.),
 the Gaussian 90(TM) system (copyright 1990, Gaussian, Inc.),
 the Gaussian 88(TM) system (copyright 1988, Gaussian, Inc.),
 the Gaussian 86(TM) system (copyright 1986, Carnegie Mellon
 University), and the Gaussian 82(TM) system (copyright 1983,
 Carnegie Mellon University). Gaussian is a federally registered
 trademark of Gaussian, Inc.
  
 This software contains proprietary and confidential information,
 including trade secrets, belonging to Gaussian, Inc.
  
 This software is provided under written license and may be
 used, copied, transmitted, or stored only in accord with that
 written license.
  
 The following legend is applicable only to US Government
 contracts under FAR:
  
                    RESTRICTED RIGHTS LEGEND
  
 Use, reproduction and disclosure by the US Government is
 subject to restrictions as set forth in subparagraphs (a)
 and (c) of the Commercial Computer Software - Restricted
 Rights clause in FAR 52.227-19.
  
 Gaussian, Inc.
 340 Quinnipiac St., Bldg. 40, Wallingford CT 06492
  
  
 ---------------------------------------------------------------
 Warning -- This program may not be used in any manner that
 competes with the business of Gaussian, Inc. or will provide
 assistance to any competitor of Gaussian, Inc.  The licensee
 of this program is prohibited from giving any competitor of
 Gaussian, Inc. access to this program.  By using this program,
 the user acknowledges that Gaussian, Inc. is engaged in the
 business of creating and licensing software in the field of
 computational chemistry and represents and warrants to the
 licensee that it is not a competitor of Gaussian, Inc. and that
 it will not use this program in any manner prohibited above.
 ---------------------------------------------------------------
  

 Cite this work as:
 Gaussian 16, Revision A.03,
 M. J. Frisch, G. W. Trucks, H. B. Schlegel, G. E. Scuseria, 
 M. A. Robb, J. R. Cheeseman, G. Scalmani, V. Barone, 
 G. A. Petersson, H. Nakatsuji, X. Li, M. Caricato, A. V. Marenich, 
 J. Bloino, B. G. Janesko, R. Gomperts, B. Mennucci, H. P. Hratchian, 
 J. V. Ortiz, A. F. Izmaylov, J. L. Sonnenberg, D. Williams-Young, 
 F. Ding, F. Lipparini, F. Egidi, J. Goings, B. Peng, A. Petrone, 
 T. Henderson, D. Ranasinghe, V. G. Zakrzewski, J. Gao, N. Rega, 
 G. Zheng, W. Liang, M. Hada, M. Ehara, K. Toyota, R. Fukuda, 
 J. Hasegawa, M. Ishida, T. Nakajima, Y. Honda, O. Kitao, H. Nakai, 
 T. Vreven, K. Throssell, J. A. Montgomery, Jr., J. E. Peralta, 
 F. Ogliaro, M. J. Bearpark, J. J. Heyd, E. N. Brothers, K. N. Kudin, 
 V. N. Staroverov, T. A. Keith, R. Kobayashi, J. Normand, 
 K. Raghavachari, A. P. Rendell, J. C. Burant, S. S. Iyengar, 
 J. Tomasi, M. Cossi, J. M. Millam, M. Klene, C. Adamo, R. Cammi, 
 J. W. Ochterski, R. L. Martin, K. Morokuma, O. Farkas, 
 J. B. Foresman, and D. J. Fox, Gaussian, Inc., Wallingford CT, 2016.
 
 ******************************************
 Gaussian 16:  ES64L-G16RevA.03 25-Dec-2016
                 5-Jun-2019 
 ******************************************
 %nprocshared=2
 Will use up to    2 processors via shared memory.
 %mem=2GB
 ----------------
 # 6-31g(d) wb97x
 ----------------
 1/38=1,172=1/1;
 2/12=2,17=6,18=5,40=1/2;
 3/5=1,6=6,7=1,11=2,25=1,30=1,74=-57/1,2,3;
 4//1;
 5/5=2,38=5/2;
 6/7=2,8=2,9=2,10=2,28=1/1;
 99/5=1,9=1/99;
 ---------------------
 tmpdir/M2_ref_151.gjf
 ---------------------
 Symbolic Z-matrix:
 Charge =  0 Multiplicity = 1
 N                     3.26303   0.07821   14.20876 
 C                     4.50745   0.57551   14.19911 
 O                     3.09892  -0.92561   14.76553 
 O                     5.43335  -0.01337   14.75056 
 H                     4.6432    1.5056    13.67802 
 
                          Input orientation:                          
 ---------------------------------------------------------------------
 Center     Atomic      Atomic             Coordinates (Angstroms)
 Number     Number       Type             X           Y           Z
 ---------------------------------------------------------------------
      1          7           0        3.263032    0.078208   14.208759
      2          6           0        4.507447    0.575506   14.199113
      3          8           0        3.098923   -0.925612   14.765532
      4          8           0        5.433355   -0.013369   14.750560
      5          1           0        4.643198    1.505598   13.678016
 ---------------------------------------------------------------------
                    Distance matrix (angstroms):
                    1          2          3          4          5
     1  N    0.000000
     2  C    1.340137   0.000000
     3  O    1.159561   2.134977   0.000000
     4  O    2.238802   1.228077   2.506388   0.000000
     5  H    2.055234   1.074729   3.078678   2.020386   0.000000
 Stoichiometry    CHNO2
 Framework group  C1[X(CHNO2)]
 Deg. of freedom     9
 Full point group                 C1      NOp   1
 Largest Abelian subgroup         C1      NOp   1
 Largest concise Abelian subgroup C1      NOp   1
                         Standard orientation:                         
 ---------------------------------------------------------------------
 Center     Atomic      Atomic             Coordinates (Angstroms)
 Number     Number       Type             X           Y           Z
 ---------------------------------------------------------------------
      1          7           0        0.697393    0.545980    0.001393
      2          6           0       -0.642029    0.502339   -0.001986
      3          8           0        1.259616   -0.468162   -0.000592
      4          8           0       -1.244798   -0.567630    0.000717
      5          1           0       -1.148125    1.450442    0.001171
 ---------------------------------------------------------------------
 Rotational constants (GHZ):          28.2571705           7.9853579           6.2259485
 Standard basis: 6-31G(d) (6D, 7F)
 There are    62 symmetry adapted cartesian basis functions of A   symmetry.
 There are    62 symmetry adapted basis functions of A   symmetry.
    62 basis functions,   116 primitive gaussians,    62 cartesian basis functions
    15 alpha electrons       15 beta electrons
       nuclear repulsion energy       109.6970695760 Hartrees.
 NAtoms=    5 NActive=    5 NUniq=    5 SFac= 1.00D+00 NAtFMM=   60 NAOKFM=F Big=F
 Integral buffers will be    131072 words long.
 Raffenetti 2 integral format.
 Two-electron integral symmetry is turned on.
 One-electron integrals computed using PRISM.
 NBasis=    62 RedAO= T EigKep=  3.07D-03  NBF=    62
 NBsUse=    62 1.00D-06 EigRej= -1.00D+00 NBFU=    62
 ExpMin= 1.61D-01 ExpMax= 5.48D+03 ExpMxC= 8.25D+02 IAcc=3 IRadAn=         5 AccDes= 0.00D+00
 Harris functional with IExCor= 4538 and IRadAn=       5 diagonalized for initial guess.
 HarFok:  IExCor= 4538 AccDes= 0.00D+00 IRadAn=         5 IDoV= 1 UseB2=F ITyADJ=14
 ICtDFT=  3500011 ScaDFX=  1.000000  1.000000  1.000000  1.000000
 FoFCou: FMM=F IPFlag=           0 FMFlag=      100000 FMFlg1=           0
         NFxFlg=           0 DoJE=T BraDBF=F KetDBF=T FulRan=T
         wScrn=  0.000000 ICntrl=       500 IOpCl=  0 I1Cent=   200000004 NGrid=           0
         NMat0=    1 NMatS0=      1 NMatT0=    0 NMatD0=    1 NMtDS0=    0 NMtDT0=    0
 Petite list used in FoFCou.
 Keep R1 ints in memory in canonical form, NReq=5584247.
 Requested convergence on RMS density matrix=1.00D-08 within 128 cycles.
 Requested convergence on MAX density matrix=1.00D-06.
 Requested convergence on             energy=1.00D-06.
 No special actions if energy rises.
 Integral accuracy reduced to 1.0D-05 until final iterations.
 Initial convergence to 1.0D-05 achieved.  Increase integral accuracy.
 SCF Done:  E(RwB97X) =  -243.698421837     A.U. after   24 cycles
            NFock= 24  Conv=0.14D-08     -V/T= 2.0066

 **********************************************************************

            Population analysis using the SCF density.

 **********************************************************************

 Orbital symmetries:
       Occupied  (A) (A) (A) (A) (A) (A) (A) (A) (A) (A) (A) (A)
                 (A) (A) (A)
       Virtual   (A) (A) (A) (A) (A) (A) (A) (A) (A) (A) (A) (A)
                 (A) (A) (A) (A) (A) (A) (A) (A) (A) (A) (A) (A)
                 (A) (A) (A) (A) (A) (A) (A) (A) (A) (A) (A) (A)
                 (A) (A) (A) (A) (A) (A) (A) (A) (A) (A) (A)
 The electronic state is 1-A.
 Alpha  occ. eigenvalues --  -19.31754 -19.27104 -14.53783 -10.40555  -1.36576
 Alpha  occ. eigenvalues --   -1.20842  -0.96227  -0.72539  -0.67974  -0.63662
 Alpha  occ. eigenvalues --   -0.61974  -0.55495  -0.51276  -0.42945  -0.34810
 Alpha virt. eigenvalues --   -0.06555   0.11583   0.22031   0.30323   0.38333
 Alpha virt. eigenvalues --    0.49171   0.59345   0.64665   0.71306   0.77921
 Alpha virt. eigenvalues --    0.79706   0.80107   0.84799   0.90549   0.94182
 Alpha virt. eigenvalues --    0.97730   1.00085   1.08810   1.11532   1.15293
 Alpha virt. eigenvalues --    1.25599   1.38692   1.39932   1.50450   1.66241
 Alpha virt. eigenvalues --    1.67105   1.72383   1.82006   1.84955   1.95733
 Alpha virt. eigenvalues --    1.96775   1.99124   2.18690   2.22176   2.42165
 Alpha virt. eigenvalues --    2.51542   2.53223   2.64953   2.80849   2.81690
 Alpha virt. eigenvalues --    2.93953   3.00996   3.23436   3.67762   3.82736
 Alpha virt. eigenvalues --    4.06559   4.27837
          Condensed to atoms (all electrons):
               1          2          3          4          5
     1  N    6.727037   0.157815   0.247518  -0.083120  -0.085458
     2  C    0.157815   4.676333  -0.062910   0.561851   0.383564
     3  O    0.247518  -0.062910   7.999815   0.001170   0.005750
     4  O   -0.083120   0.561851   0.001170   7.883367  -0.046720
     5  H   -0.085458   0.383564   0.005750  -0.046720   0.554529
 Mulliken charges:
               1
     1  N    0.036208
     2  C    0.283348
     3  O   -0.191344
     4  O   -0.316548
     5  H    0.188336
 Sum of Mulliken charges =  -0.00000
 Mulliken charges with hydrogens summed into heavy atoms:
               1
     1  N    0.036208
     2  C    0.471684
     3  O   -0.191344
     4  O   -0.316548
 Electronic spatial extent (au):  <R**2>=            200.0405
 Charge=             -0.0000 electrons
 Dipole moment (field-independent basis, Debye):
    X=             -0.7192    Y=              1.9234    Z=             -0.0092  Tot=              2.0535
 Quadrupole moment (field-independent basis, Debye-Ang):
   XX=            -24.4061   YY=            -21.8159   ZZ=            -19.5643
   XY=             -2.9160   XZ=             -0.0090   YZ=             -0.0141
 Traceless Quadrupole moment (field-independent basis, Debye-Ang):
   XX=             -2.4773   YY=              0.1129   ZZ=              2.3644
   XY=             -2.9160   XZ=             -0.0090   YZ=             -0.0141
 Octapole moment (field-independent basis, Debye-Ang**2):
  XXX=              0.9309  YYY=             -2.0808  ZZZ=             -0.0034  XYY=             -2.4869
  XXY=              1.1712  XXZ=             -0.0215  XZZ=              0.7949  YZZ=             -1.0710
  YYZ=             -0.0070  XYZ=             -0.0181
 Hexadecapole moment (field-independent basis, Debye-Ang**3):
 XXXX=           -157.4305 YYYY=            -59.7800 ZZZZ=            -14.6260 XXXY=             -4.1922
 XXXZ=             -0.0316 YYYX=             -5.0138 YYYZ=             -0.0188 ZZZX=             -0.0139
 ZZZY=             -0.0096 XXYY=            -34.8524 XXZZ=            -25.9198 YYZZ=            -12.2273
 XXYZ=             -0.0047 YYXZ=             -0.0147 ZZXY=             -0.1658
 N-N= 1.096970695760D+02 E-N=-7.915186449835D+02  KE= 2.421018697601D+02
 1\1\GINC-NODE91\SP\RwB97X\6-31G(d)\C1H1N1O2\YANZ\05-Jun-2019\0\\# 6-31
 g(d) wb97x\\tmpdir/M2_ref_151.gjf\\0,1\N,0,3.263032,0.078208,14.208759
 \C,0,4.507447,0.575506,14.199113\O,0,3.09892289,-0.92561171,14.7655322
 4\O,0,5.43335451,-0.01336941,14.75056028\H,0,4.64319807,1.50559817,13.
 67801642\\Version=ES64L-G16RevA.03\State=1-A\HF=-243.6984218\RMSD=1.36
 0e-09\Dipole=-0.0038857,0.6975892,-0.4074977\Quadrupole=-2.8596302,1.5
 265557,1.3330745,0.3754789,-1.2689406,0.2269544\PG=C01 [X(C1H1N1O2)]\\
 @


 IT IS A PROFOUNDLY ERRONEOUS TRUISM ... THAT WE SHOULD CULTIVATE
 THE HABIT OF THINKING OF WHAT WE ARE DOING.
 THE PRECISE OPPOSITE IS THE CASE.
 CIVILIZATION ADVANCES BY EXTENDING THE NUMBER OF IMPORTANT OPERATIONS
 WHICH WE CAN PERFORM WITHOUT THINKING ABOUT THEM.

                                    -- ALFRED NORTH WHITEHEAD
 Job cpu time:       0 days  0 hours  0 minutes 17.6 seconds.
 Elapsed time:       0 days  0 hours  0 minutes  9.0 seconds.
 File lengths (MBytes):  RWF=      6 Int=      0 D2E=      0 Chk=      1 Scr=      1
 Normal termination of Gaussian 16 at Wed Jun  5 16:58:27 2019.
