 Entering Gaussian System, Link 0=g16
 Initial command:
 /share/apps/gaussian/g16/l1.exe "/tmp/55477.mgr/Gau-318742.inp" -scrdir="/tmp/55477.mgr/"
 Entering Link 1 = /share/apps/gaussian/g16/l1.exe PID=    318743.
  
 Copyright (c) 1988,1990,1992,1993,1995,1998,2003,2009,2016,
            Gaussian, Inc.  All Rights Reserved.
  
 This is part of the Gaussian(R) 16 program.  It is based on
 the Gaussian(R) 09 system (copyright 2009, Gaussian, Inc.),
 the Gaussian(R) 03 system (copyright 2003, Gaussian, Inc.),
 the Gaussian(R) 98 system (copyright 1998, Gaussian, Inc.),
 the Gaussian(R) 94 system (copyright 1995, Gaussian, Inc.),
 the Gaussian 92(TM) system (copyright 1992, Gaussian, Inc.),
 the Gaussian 90(TM) system (copyright 1990, Gaussian, Inc.),
 the Gaussian 88(TM) system (copyright 1988, Gaussian, Inc.),
 the Gaussian 86(TM) system (copyright 1986, Carnegie Mellon
 University), and the Gaussian 82(TM) system (copyright 1983,
 Carnegie Mellon University). Gaussian is a federally registered
 trademark of Gaussian, Inc.
  
 This software contains proprietary and confidential information,
 including trade secrets, belonging to Gaussian, Inc.
  
 This software is provided under written license and may be
 used, copied, transmitted, or stored only in accord with that
 written license.
  
 The following legend is applicable only to US Government
 contracts under FAR:
  
                    RESTRICTED RIGHTS LEGEND
  
 Use, reproduction and disclosure by the US Government is
 subject to restrictions as set forth in subparagraphs (a)
 and (c) of the Commercial Computer Software - Restricted
 Rights clause in FAR 52.227-19.
  
 Gaussian, Inc.
 340 Quinnipiac St., Bldg. 40, Wallingford CT 06492
  
  
 ---------------------------------------------------------------
 Warning -- This program may not be used in any manner that
 competes with the business of Gaussian, Inc. or will provide
 assistance to any competitor of Gaussian, Inc.  The licensee
 of this program is prohibited from giving any competitor of
 Gaussian, Inc. access to this program.  By using this program,
 the user acknowledges that Gaussian, Inc. is engaged in the
 business of creating and licensing software in the field of
 computational chemistry and represents and warrants to the
 licensee that it is not a competitor of Gaussian, Inc. and that
 it will not use this program in any manner prohibited above.
 ---------------------------------------------------------------
  

 Cite this work as:
 Gaussian 16, Revision A.03,
 M. J. Frisch, G. W. Trucks, H. B. Schlegel, G. E. Scuseria, 
 M. A. Robb, J. R. Cheeseman, G. Scalmani, V. Barone, 
 G. A. Petersson, H. Nakatsuji, X. Li, M. Caricato, A. V. Marenich, 
 J. Bloino, B. G. Janesko, R. Gomperts, B. Mennucci, H. P. Hratchian, 
 J. V. Ortiz, A. F. Izmaylov, J. L. Sonnenberg, D. Williams-Young, 
 F. Ding, F. Lipparini, F. Egidi, J. Goings, B. Peng, A. Petrone, 
 T. Henderson, D. Ranasinghe, V. G. Zakrzewski, J. Gao, N. Rega, 
 G. Zheng, W. Liang, M. Hada, M. Ehara, K. Toyota, R. Fukuda, 
 J. Hasegawa, M. Ishida, T. Nakajima, Y. Honda, O. Kitao, H. Nakai, 
 T. Vreven, K. Throssell, J. A. Montgomery, Jr., J. E. Peralta, 
 F. Ogliaro, M. J. Bearpark, J. J. Heyd, E. N. Brothers, K. N. Kudin, 
 V. N. Staroverov, T. A. Keith, R. Kobayashi, J. Normand, 
 K. Raghavachari, A. P. Rendell, J. C. Burant, S. S. Iyengar, 
 J. Tomasi, M. Cossi, J. M. Millam, M. Klene, C. Adamo, R. Cammi, 
 J. W. Ochterski, R. L. Martin, K. Morokuma, O. Farkas, 
 J. B. Foresman, and D. J. Fox, Gaussian, Inc., Wallingford CT, 2016.
 
 ******************************************
 Gaussian 16:  ES64L-G16RevA.03 25-Dec-2016
                 5-Jun-2019 
 ******************************************
 %nprocshared=2
 Will use up to    2 processors via shared memory.
 %mem=2GB
 ----------------
 # 6-31g(d) wb97x
 ----------------
 1/38=1,172=1/1;
 2/12=2,17=6,18=5,40=1/2;
 3/5=1,6=6,7=1,11=2,25=1,30=1,74=-57/1,2,3;
 4//1;
 5/5=2,38=5/2;
 6/7=2,8=2,9=2,10=2,28=1/1;
 99/5=1,9=1/99;
 --------------------
 tmpdir/M2_ref_68.gjf
 --------------------
 Symbolic Z-matrix:
 Charge =  0 Multiplicity = 1
 C                    -2.47813   4.97969   10.58063 
 C                    -1.87581   5.37814   9.38629 
 C                    -0.76388   4.67246   8.92584 
 H                    -3.34291   5.53224   10.93853 
 O                    -2.04232   4.02324   11.20957 
 H                    -2.24637   6.2555    8.84298 
 H                    -0.28814   4.96982   7.99315 
 H                    -0.3972    3.89415   9.44586 
 
                          Input orientation:                          
 ---------------------------------------------------------------------
 Center     Atomic      Atomic             Coordinates (Angstroms)
 Number     Number       Type             X           Y           Z
 ---------------------------------------------------------------------
      1          6           0       -2.478125    4.979687   10.580633
      2          6           0       -1.875808    5.378142    9.386288
      3          6           0       -0.763877    4.672461    8.925844
      4          1           0       -3.342912    5.532237   10.938530
      5          8           0       -2.042321    4.023245   11.209570
      6          1           0       -2.246369    6.255502    8.842984
      7          1           0       -0.288137    4.969819    7.993150
      8          1           0       -0.397203    3.894147    9.445859
 ---------------------------------------------------------------------
                    Distance matrix (angstroms):
                    1          2          3          4          5
     1  C    0.000000
     2  C    1.395712   0.000000
     3  C    2.402366   1.395129   0.000000
     4  H    1.086857   2.141400   3.382535   0.000000
     5  O    1.224855   2.277681   2.696536   2.010487   0.000000
     6  H    2.168142   1.096474   2.170407   2.473223   3.259653
     7  H    3.389869   2.151339   1.088425   4.280564   3.783982
     8  H    2.606980   2.095725   1.005305   3.686273   2.415317
                    6          7          8
     6  H    0.000000
     7  H    2.491961   0.000000
     8  H    3.059227   1.810892   0.000000
 Stoichiometry    C3H4O
 Framework group  C1[X(C3H4O)]
 Deg. of freedom    18
 Full point group                 C1      NOp   1
 Largest Abelian subgroup         C1      NOp   1
 Largest concise Abelian subgroup C1      NOp   1
                         Standard orientation:                         
 ---------------------------------------------------------------------
 Center     Atomic      Atomic             Coordinates (Angstroms)
 Number     Number       Type             X           Y           Z
 ---------------------------------------------------------------------
      1          6           0       -0.795952    0.479642   -0.000786
      2          6           0        0.589309    0.650068   -0.005324
      3          6           0        1.405963   -0.481052    0.000024
      4          1           0       -1.430194    1.362247   -0.002782
      5          8           0       -1.285703   -0.643038    0.000890
      6          1           0        1.025384    1.655544    0.028013
      7          1           0        2.487804   -0.361842   -0.008698
      8          1           0        1.006714   -1.403588    0.012866
 ---------------------------------------------------------------------
 Rotational constants (GHZ):          21.2165984           6.9927683           5.2594912
 Standard basis: 6-31G(d) (6D, 7F)
 There are    68 symmetry adapted cartesian basis functions of A   symmetry.
 There are    68 symmetry adapted basis functions of A   symmetry.
    68 basis functions,   128 primitive gaussians,    68 cartesian basis functions
    15 alpha electrons       15 beta electrons
       nuclear repulsion energy       106.3642969918 Hartrees.
 NAtoms=    8 NActive=    8 NUniq=    8 SFac= 1.00D+00 NAtFMM=   60 NAOKFM=F Big=F
 Integral buffers will be    131072 words long.
 Raffenetti 2 integral format.
 Two-electron integral symmetry is turned on.
 One-electron integrals computed using PRISM.
 NBasis=    68 RedAO= T EigKep=  2.86D-03  NBF=    68
 NBsUse=    68 1.00D-06 EigRej= -1.00D+00 NBFU=    68
 ExpMin= 1.61D-01 ExpMax= 5.48D+03 ExpMxC= 8.25D+02 IAcc=3 IRadAn=         5 AccDes= 0.00D+00
 Harris functional with IExCor= 4538 and IRadAn=       5 diagonalized for initial guess.
 HarFok:  IExCor= 4538 AccDes= 0.00D+00 IRadAn=         5 IDoV= 1 UseB2=F ITyADJ=14
 ICtDFT=  3500011 ScaDFX=  1.000000  1.000000  1.000000  1.000000
 FoFCou: FMM=F IPFlag=           0 FMFlag=      100000 FMFlg1=           0
         NFxFlg=           0 DoJE=T BraDBF=F KetDBF=T FulRan=T
         wScrn=  0.000000 ICntrl=       500 IOpCl=  0 I1Cent=   200000004 NGrid=           0
         NMat0=    1 NMatS0=      1 NMatT0=    0 NMatD0=    1 NMtDS0=    0 NMtDT0=    0
 Petite list used in FoFCou.
 Keep R1 ints in memory in canonical form, NReq=7290824.
 Requested convergence on RMS density matrix=1.00D-08 within 128 cycles.
 Requested convergence on MAX density matrix=1.00D-06.
 Requested convergence on             energy=1.00D-06.
 No special actions if energy rises.
 Integral accuracy reduced to 1.0D-05 until final iterations.
 Initial convergence to 1.0D-05 achieved.  Increase integral accuracy.
 SCF Done:  E(RwB97X) =  -191.837164332     A.U. after   15 cycles
            NFock= 15  Conv=0.39D-08     -V/T= 2.0083

 **********************************************************************

            Population analysis using the SCF density.

 **********************************************************************

 Orbital symmetries:
       Occupied  (A) (A) (A) (A) (A) (A) (A) (A) (A) (A) (A) (A)
                 (A) (A) (A)
       Virtual   (A) (A) (A) (A) (A) (A) (A) (A) (A) (A) (A) (A)
                 (A) (A) (A) (A) (A) (A) (A) (A) (A) (A) (A) (A)
                 (A) (A) (A) (A) (A) (A) (A) (A) (A) (A) (A) (A)
                 (A) (A) (A) (A) (A) (A) (A) (A) (A) (A) (A) (A)
                 (A) (A) (A) (A) (A)
 The electronic state is 1-A.
 Alpha  occ. eigenvalues --  -19.20491 -10.35043 -10.29988 -10.28893  -1.16015
 Alpha  occ. eigenvalues --   -0.92150  -0.79554  -0.66581  -0.63181  -0.55677
 Alpha  occ. eigenvalues --   -0.52165  -0.50578  -0.49501  -0.37023  -0.35709
 Alpha virt. eigenvalues --    0.01100   0.17321   0.20278   0.23986   0.26806
 Alpha virt. eigenvalues --    0.30412   0.35118   0.40964   0.45996   0.62045
 Alpha virt. eigenvalues --    0.63568   0.68788   0.68819   0.70313   0.74383
 Alpha virt. eigenvalues --    0.75068   0.80538   0.92371   0.96363   0.97273
 Alpha virt. eigenvalues --    0.98533   1.03580   1.09222   1.10894   1.20731
 Alpha virt. eigenvalues --    1.21379   1.25995   1.38381   1.43435   1.52296
 Alpha virt. eigenvalues --    1.65517   1.66246   1.75548   1.87081   1.95015
 Alpha virt. eigenvalues --    1.95620   2.05393   2.06934   2.18757   2.31561
 Alpha virt. eigenvalues --    2.33380   2.41527   2.42195   2.64831   2.65911
 Alpha virt. eigenvalues --    2.73292   2.88348   3.03230   3.19684   3.97789
 Alpha virt. eigenvalues --    4.21671   4.28133   4.51113
          Condensed to atoms (all electrons):
               1          2          3          4          5          6
     1  C    4.554216   0.330479  -0.028410   0.380637   0.577906  -0.025842
     2  C    0.330479   5.222181   0.581172  -0.116384  -0.107526   0.357819
     3  C   -0.028410   0.581172   5.017203   0.008130  -0.001560  -0.034950
     4  H    0.380637  -0.116384   0.008130   0.645503  -0.053863   0.001875
     5  O    0.577906  -0.107526  -0.001560  -0.053863   7.981205   0.003114
     6  H   -0.025842   0.357819  -0.034950   0.001875   0.003114   0.527174
     7  H    0.003908  -0.031652   0.369111  -0.000031   0.000679  -0.003027
     8  H   -0.008572  -0.035816   0.387236   0.000581   0.015540   0.003589
               7          8
     1  C    0.003908  -0.008572
     2  C   -0.031652  -0.035816
     3  C    0.369111   0.387236
     4  H   -0.000031   0.000581
     5  O    0.000679   0.015540
     6  H   -0.003027   0.003589
     7  H    0.509920  -0.028422
     8  H   -0.028422   0.451154
 Mulliken charges:
               1
     1  C    0.215676
     2  C   -0.200274
     3  C   -0.297932
     4  H    0.133550
     5  O   -0.415494
     6  H    0.170247
     7  H    0.179516
     8  H    0.214710
 Sum of Mulliken charges =  -0.00000
 Mulliken charges with hydrogens summed into heavy atoms:
               1
     1  C    0.349227
     2  C   -0.030026
     3  C    0.096294
     5  O   -0.415494
 Electronic spatial extent (au):  <R**2>=            253.6191
 Charge=              0.0000 electrons
 Dipole moment (field-independent basis, Debye):
    X=              2.1163    Y=              1.7077    Z=              0.0241  Tot=              2.7195
 Quadrupole moment (field-independent basis, Debye-Ang):
   XX=            -23.2885   YY=            -21.7668   ZZ=            -24.3050
   XY=             -3.1520   XZ=              0.0290   YZ=              0.0308
 Traceless Quadrupole moment (field-independent basis, Debye-Ang):
   XX=             -0.1684   YY=              1.3533   ZZ=             -1.1849
   XY=             -3.1520   XZ=              0.0290   YZ=              0.0308
 Octapole moment (field-independent basis, Debye-Ang**2):
  XXX=              5.2721  YYY=             -0.8463  ZZZ=              0.0418  XYY=              0.5359
  XXY=              2.0379  XXZ=             -0.0127  XZZ=             -3.2787  YZZ=             -1.1891
  YYZ=              0.1242  XYZ=              0.0422
 Hexadecapole moment (field-independent basis, Debye-Ang**3):
 XXXX=           -198.9503 YYYY=            -83.5206 ZZZZ=            -22.6444 XXXY=             -4.5313
 XXXZ=             -0.0615 YYYX=              1.4423 YYYZ=              0.1154 ZZZX=              0.0334
 ZZZY=              0.0186 XXYY=            -48.4584 XXZZ=            -40.1961 YYZZ=            -19.2128
 XXYZ=              0.0620 YYXZ=              0.1344 ZZXY=              0.5912
 N-N= 1.063642969918D+02 E-N=-6.602249384017D+02  KE= 1.902522001590D+02
 1\1\GINC-NODE91\SP\RwB97X\6-31G(d)\C3H4O1\YANZ\05-Jun-2019\0\\# 6-31g(
 d) wb97x\\tmpdir/M2_ref_68.gjf\\0,1\C,0,-2.478125,4.979687,10.580633\C
 ,0,-1.875808,5.378142,9.386288\C,0,-0.763877,4.672461,8.925844\H,0,-3.
 342912,5.532237,10.93853\O,0,-2.04232105,4.02324472,11.20956992\H,0,-2
 .24636886,6.25550197,8.84298405\H,0,-0.288137,4.969819,7.99315\H,0,-0.
 39720268,3.89414746,9.44585909\\Version=ES64L-G16RevA.03\State=1-A\HF=
 -191.8371643\RMSD=3.863e-09\Dipole=0.0217222,0.6840905,-0.8223599\Quad
 rupole=1.4820046,-0.4157151,-1.0662895,-1.4393545,-1.0783382,1.1862475
 \PG=C01 [X(C3H4O1)]\\@


  ON THE CHOICE OF THE CORRECT LANGUAGE -
 I SPEAK SPANISH TO GOD, ITALIAN TO WOMEN,
 FRENCH TO MEN, AND GERMAN TO MY HORSE.
          -- CHARLES V
 Job cpu time:       0 days  0 hours  0 minutes 19.8 seconds.
 Elapsed time:       0 days  0 hours  0 minutes 10.1 seconds.
 File lengths (MBytes):  RWF=      6 Int=      0 D2E=      0 Chk=      1 Scr=      1
 Normal termination of Gaussian 16 at Wed Jun  5 16:58:02 2019.
