 Entering Gaussian System, Link 0=g16
 Initial command:
 /share/apps/gaussian/g16/l1.exe "/tmp/55477.mgr/Gau-318233.inp" -scrdir="/tmp/55477.mgr/"
 Entering Link 1 = /share/apps/gaussian/g16/l1.exe PID=    318235.
  
 Copyright (c) 1988,1990,1992,1993,1995,1998,2003,2009,2016,
            Gaussian, Inc.  All Rights Reserved.
  
 This is part of the Gaussian(R) 16 program.  It is based on
 the Gaussian(R) 09 system (copyright 2009, Gaussian, Inc.),
 the Gaussian(R) 03 system (copyright 2003, Gaussian, Inc.),
 the Gaussian(R) 98 system (copyright 1998, Gaussian, Inc.),
 the Gaussian(R) 94 system (copyright 1995, Gaussian, Inc.),
 the Gaussian 92(TM) system (copyright 1992, Gaussian, Inc.),
 the Gaussian 90(TM) system (copyright 1990, Gaussian, Inc.),
 the Gaussian 88(TM) system (copyright 1988, Gaussian, Inc.),
 the Gaussian 86(TM) system (copyright 1986, Carnegie Mellon
 University), and the Gaussian 82(TM) system (copyright 1983,
 Carnegie Mellon University). Gaussian is a federally registered
 trademark of Gaussian, Inc.
  
 This software contains proprietary and confidential information,
 including trade secrets, belonging to Gaussian, Inc.
  
 This software is provided under written license and may be
 used, copied, transmitted, or stored only in accord with that
 written license.
  
 The following legend is applicable only to US Government
 contracts under FAR:
  
                    RESTRICTED RIGHTS LEGEND
  
 Use, reproduction and disclosure by the US Government is
 subject to restrictions as set forth in subparagraphs (a)
 and (c) of the Commercial Computer Software - Restricted
 Rights clause in FAR 52.227-19.
  
 Gaussian, Inc.
 340 Quinnipiac St., Bldg. 40, Wallingford CT 06492
  
  
 ---------------------------------------------------------------
 Warning -- This program may not be used in any manner that
 competes with the business of Gaussian, Inc. or will provide
 assistance to any competitor of Gaussian, Inc.  The licensee
 of this program is prohibited from giving any competitor of
 Gaussian, Inc. access to this program.  By using this program,
 the user acknowledges that Gaussian, Inc. is engaged in the
 business of creating and licensing software in the field of
 computational chemistry and represents and warrants to the
 licensee that it is not a competitor of Gaussian, Inc. and that
 it will not use this program in any manner prohibited above.
 ---------------------------------------------------------------
  

 Cite this work as:
 Gaussian 16, Revision A.03,
 M. J. Frisch, G. W. Trucks, H. B. Schlegel, G. E. Scuseria, 
 M. A. Robb, J. R. Cheeseman, G. Scalmani, V. Barone, 
 G. A. Petersson, H. Nakatsuji, X. Li, M. Caricato, A. V. Marenich, 
 J. Bloino, B. G. Janesko, R. Gomperts, B. Mennucci, H. P. Hratchian, 
 J. V. Ortiz, A. F. Izmaylov, J. L. Sonnenberg, D. Williams-Young, 
 F. Ding, F. Lipparini, F. Egidi, J. Goings, B. Peng, A. Petrone, 
 T. Henderson, D. Ranasinghe, V. G. Zakrzewski, J. Gao, N. Rega, 
 G. Zheng, W. Liang, M. Hada, M. Ehara, K. Toyota, R. Fukuda, 
 J. Hasegawa, M. Ishida, T. Nakajima, Y. Honda, O. Kitao, H. Nakai, 
 T. Vreven, K. Throssell, J. A. Montgomery, Jr., J. E. Peralta, 
 F. Ogliaro, M. J. Bearpark, J. J. Heyd, E. N. Brothers, K. N. Kudin, 
 V. N. Staroverov, T. A. Keith, R. Kobayashi, J. Normand, 
 K. Raghavachari, A. P. Rendell, J. C. Burant, S. S. Iyengar, 
 J. Tomasi, M. Cossi, J. M. Millam, M. Klene, C. Adamo, R. Cammi, 
 J. W. Ochterski, R. L. Martin, K. Morokuma, O. Farkas, 
 J. B. Foresman, and D. J. Fox, Gaussian, Inc., Wallingford CT, 2016.
 
 ******************************************
 Gaussian 16:  ES64L-G16RevA.03 25-Dec-2016
                 5-Jun-2019 
 ******************************************
 %nprocshared=2
 Will use up to    2 processors via shared memory.
 %mem=2GB
 ----------------
 # 6-31g(d) wb97x
 ----------------
 1/38=1,172=1/1;
 2/12=2,17=6,18=5,40=1/2;
 3/5=1,6=6,7=1,11=2,25=1,30=1,74=-57/1,2,3;
 4//1;
 5/5=2,38=5/2;
 6/7=2,8=2,9=2,10=2,28=1/1;
 99/5=1,9=1/99;
 --------------------
 tmpdir/M2_ref_85.gjf
 --------------------
 Symbolic Z-matrix:
 Charge =  0 Multiplicity = 1
 C                    -0.25734   3.59727   9.64421 
 C                    -0.87166   3.18958   10.82761 
 H                    -0.62402   4.37559   9.12419 
 H                     0.6155    3.05146   9.29743 
 H                    -1.67672   3.70009   11.16524 
 H                    -0.43468   2.34186   11.35068 
 
                          Input orientation:                          
 ---------------------------------------------------------------------
 Center     Atomic      Atomic             Coordinates (Angstroms)
 Number     Number       Type             X           Y           Z
 ---------------------------------------------------------------------
      1          6           0       -0.257341    3.597273    9.644210
      2          6           0       -0.871664    3.189582   10.827610
      3          1           0       -0.624015    4.375587    9.124195
      4          1           0        0.615499    3.051459    9.297431
      5          1           0       -1.676724    3.700089   11.165241
      6          1           0       -0.434681    2.341862   11.350685
 ---------------------------------------------------------------------
                    Distance matrix (angstroms):
                    1          2          3          4          5
     1  C    0.000000
     2  C    1.394288   0.000000
     3  H    1.005305   2.090349   0.000000
     4  H    1.086286   2.138266   1.822010   0.000000
     5  H    2.082968   1.011303   2.393817   3.027164   0.000000
     6  H    2.125927   1.087746   3.021447   2.412936   1.849823
                    6
     6  H    0.000000
 Stoichiometry    C2H4
 Framework group  C1[X(C2H4)]
 Deg. of freedom    12
 Full point group                 C1      NOp   1
 Largest Abelian subgroup         C1      NOp   1
 Largest concise Abelian subgroup C1      NOp   1
                         Standard orientation:                         
 ---------------------------------------------------------------------
 Center     Atomic      Atomic             Coordinates (Angstroms)
 Number     Number       Type             X           Y           Z
 ---------------------------------------------------------------------
      1          6           0       -0.694919   -0.011357    0.001207
      2          6           0        0.699362   -0.009786   -0.002961
      3          1           0       -1.201345   -0.879770   -0.004249
      4          1           0       -1.215298    0.942175    0.002191
      5          1           0        1.192397   -0.892674    0.009695
      6          1           0        1.197591    0.957129    0.002884
 ---------------------------------------------------------------------
 Rotational constants (GHZ):         148.4917378          28.9021260          24.1937372
 Standard basis: 6-31G(d) (6D, 7F)
 There are    38 symmetry adapted cartesian basis functions of A   symmetry.
 There are    38 symmetry adapted basis functions of A   symmetry.
    38 basis functions,    72 primitive gaussians,    38 cartesian basis functions
     8 alpha electrons        8 beta electrons
       nuclear repulsion energy        33.1912493857 Hartrees.
 NAtoms=    6 NActive=    6 NUniq=    6 SFac= 1.00D+00 NAtFMM=   60 NAOKFM=F Big=F
 Integral buffers will be    131072 words long.
 Raffenetti 2 integral format.
 Two-electron integral symmetry is turned on.
 One-electron integrals computed using PRISM.
 NBasis=    38 RedAO= T EigKep=  8.85D-03  NBF=    38
 NBsUse=    38 1.00D-06 EigRej= -1.00D+00 NBFU=    38
 ExpMin= 1.61D-01 ExpMax= 3.05D+03 ExpMxC= 4.57D+02 IAcc=3 IRadAn=         5 AccDes= 0.00D+00
 Harris functional with IExCor= 4538 and IRadAn=       5 diagonalized for initial guess.
 HarFok:  IExCor= 4538 AccDes= 0.00D+00 IRadAn=         5 IDoV= 1 UseB2=F ITyADJ=14
 ICtDFT=  3500011 ScaDFX=  1.000000  1.000000  1.000000  1.000000
 FoFCou: FMM=F IPFlag=           0 FMFlag=      100000 FMFlg1=           0
         NFxFlg=           0 DoJE=T BraDBF=F KetDBF=T FulRan=T
         wScrn=  0.000000 ICntrl=       500 IOpCl=  0 I1Cent=   200000004 NGrid=           0
         NMat0=    1 NMatS0=      1 NMatT0=    0 NMatD0=    1 NMtDS0=    0 NMtDT0=    0
 Petite list used in FoFCou.
 Keep R1 ints in memory in canonical form, NReq=2276060.
 Requested convergence on RMS density matrix=1.00D-08 within 128 cycles.
 Requested convergence on MAX density matrix=1.00D-06.
 Requested convergence on             energy=1.00D-06.
 No special actions if energy rises.
 Integral accuracy reduced to 1.0D-05 until final iterations.
 Initial convergence to 1.0D-05 achieved.  Increase integral accuracy.
 SCF Done:  E(RwB97X) =  -78.5421871795     A.U. after   12 cycles
            NFock= 12  Conv=0.41D-08     -V/T= 2.0091

 **********************************************************************

            Population analysis using the SCF density.

 **********************************************************************

 Orbital symmetries:
       Occupied  (A) (A) (A) (A) (A) (A) (A) (A)
       Virtual   (A) (A) (A) (A) (A) (A) (A) (A) (A) (A) (A) (A)
                 (A) (A) (A) (A) (A) (A) (A) (A) (A) (A) (A) (A)
                 (A) (A) (A) (A) (A) (A)
 The electronic state is 1-A.
 Alpha  occ. eigenvalues --  -10.26624 -10.26494  -0.87787  -0.70789  -0.58890
 Alpha  occ. eigenvalues --   -0.50366  -0.47610  -0.35598
 Alpha virt. eigenvalues --    0.09977   0.21919   0.26480   0.27277   0.34995
 Alpha virt. eigenvalues --    0.40410   0.59563   0.66654   0.67008   0.74663
 Alpha virt. eigenvalues --    0.75518   0.77854   1.00015   1.00382   1.07925
 Alpha virt. eigenvalues --    1.09565   1.19319   1.37786   1.55490   1.65883
 Alpha virt. eigenvalues --    1.90443   2.02910   2.12498   2.19092   2.43091
 Alpha virt. eigenvalues --    2.44029   2.74904   2.76672   4.21642   4.40183
          Condensed to atoms (all electrons):
               1          2          3          4          5          6
     1  C    4.975280   0.648414   0.395868   0.386485  -0.037120  -0.035571
     2  C    0.648414   4.973523  -0.036115  -0.034421   0.395524   0.386360
     3  H    0.395868  -0.036115   0.504581  -0.033250  -0.005686   0.003933
     4  H    0.386485  -0.034421  -0.033250   0.521814   0.003897  -0.006107
     5  H   -0.037120   0.395524  -0.005686   0.003897   0.503049  -0.030833
     6  H   -0.035571   0.386360   0.003933  -0.006107  -0.030833   0.518997
 Mulliken charges:
               1
     1  C   -0.333356
     2  C   -0.333285
     3  H    0.170668
     4  H    0.161582
     5  H    0.171169
     6  H    0.163222
 Sum of Mulliken charges =   0.00000
 Mulliken charges with hydrogens summed into heavy atoms:
               1
     1  C   -0.001106
     2  C    0.001106
 Electronic spatial extent (au):  <R**2>=             82.4768
 Charge=              0.0000 electrons
 Dipole moment (field-independent basis, Debye):
    X=             -0.0121    Y=             -0.0362    Z=              0.0103  Tot=              0.0395
 Quadrupole moment (field-independent basis, Debye-Ang):
   XX=            -12.0630   YY=            -11.7719   ZZ=            -15.1255
   XY=             -0.0014   XZ=              0.0185   YZ=             -0.0003
 Traceless Quadrupole moment (field-independent basis, Debye-Ang):
   XX=              0.9237   YY=              1.2149   ZZ=             -2.1387
   XY=             -0.0014   XZ=              0.0185   YZ=             -0.0003
 Octapole moment (field-independent basis, Debye-Ang**2):
  XXX=             -0.1664  YYY=             -0.1007  ZZZ=              0.0154  XYY=              0.0518
  XXY=             -0.1379  XXZ=              0.0217  XZZ=             -0.0191  YZZ=             -0.1349
  YYZ=              0.0148  XYZ=             -0.0166
 Hexadecapole moment (field-independent basis, Debye-Ang**3):
 XXXX=            -67.6051 YYYY=            -24.4591 ZZZZ=            -15.8820 XXXY=             -0.0170
 XXXZ=              0.0478 YYYX=              0.0139 YYYZ=             -0.0005 ZZZX=              0.0204
 ZZZY=             -0.0011 XXYY=            -12.8784 XXZZ=            -14.6561 YYZZ=             -7.3513
 XXYZ=             -0.0001 YYXZ=              0.0260 ZZXY=              0.0040
 N-N= 3.319124938569D+01 E-N=-2.477361835641D+02  KE= 7.783440195228D+01
 1\1\GINC-NODE91\SP\RwB97X\6-31G(d)\C2H4\YANZ\05-Jun-2019\0\\# 6-31g(d)
  wb97x\\tmpdir/M2_ref_85.gjf\\0,1\C,0,-0.257341,3.597273,9.64421\C,0,-
 0.871664,3.189582,10.82761\H,0,-0.62401532,4.37558654,9.12419491\H,0,0
 .615499,3.051459,9.297431\H,0,-1.6767244,3.70008885,11.16524056\H,0,-0
 .43468081,2.34186155,11.35068496\\Version=ES64L-G16RevA.03\State=1-A\H
 F=-78.5421872\RMSD=4.146e-09\Dipole=-0.0050936,0.0142911,-0.0033802\Qu
 adrupole=-0.0212461,-0.0711146,0.0923607,-0.9465182,-0.6799005,-0.7368
 3\PG=C01 [X(C2H4)]\\@


 CHRISTMAS IS ON TOP OF A STEEP HILL.
 THE CLOSER YOU GET, THE STEEPER THE HILL IS.
          -- LINUS, OF PEANUTS
 Job cpu time:       0 days  0 hours  0 minutes  8.1 seconds.
 Elapsed time:       0 days  0 hours  0 minutes  4.1 seconds.
 File lengths (MBytes):  RWF=      6 Int=      0 D2E=      0 Chk=      1 Scr=      1
 Normal termination of Gaussian 16 at Wed Jun  5 16:57:31 2019.
