 Entering Gaussian System, Link 0=g16
 Initial command:
 /share/apps/gaussian/g16/l1.exe "/tmp/55477.mgr/Gau-318622.inp" -scrdir="/tmp/55477.mgr/"
 Entering Link 1 = /share/apps/gaussian/g16/l1.exe PID=    318623.
  
 Copyright (c) 1988,1990,1992,1993,1995,1998,2003,2009,2016,
            Gaussian, Inc.  All Rights Reserved.
  
 This is part of the Gaussian(R) 16 program.  It is based on
 the Gaussian(R) 09 system (copyright 2009, Gaussian, Inc.),
 the Gaussian(R) 03 system (copyright 2003, Gaussian, Inc.),
 the Gaussian(R) 98 system (copyright 1998, Gaussian, Inc.),
 the Gaussian(R) 94 system (copyright 1995, Gaussian, Inc.),
 the Gaussian 92(TM) system (copyright 1992, Gaussian, Inc.),
 the Gaussian 90(TM) system (copyright 1990, Gaussian, Inc.),
 the Gaussian 88(TM) system (copyright 1988, Gaussian, Inc.),
 the Gaussian 86(TM) system (copyright 1986, Carnegie Mellon
 University), and the Gaussian 82(TM) system (copyright 1983,
 Carnegie Mellon University). Gaussian is a federally registered
 trademark of Gaussian, Inc.
  
 This software contains proprietary and confidential information,
 including trade secrets, belonging to Gaussian, Inc.
  
 This software is provided under written license and may be
 used, copied, transmitted, or stored only in accord with that
 written license.
  
 The following legend is applicable only to US Government
 contracts under FAR:
  
                    RESTRICTED RIGHTS LEGEND
  
 Use, reproduction and disclosure by the US Government is
 subject to restrictions as set forth in subparagraphs (a)
 and (c) of the Commercial Computer Software - Restricted
 Rights clause in FAR 52.227-19.
  
 Gaussian, Inc.
 340 Quinnipiac St., Bldg. 40, Wallingford CT 06492
  
  
 ---------------------------------------------------------------
 Warning -- This program may not be used in any manner that
 competes with the business of Gaussian, Inc. or will provide
 assistance to any competitor of Gaussian, Inc.  The licensee
 of this program is prohibited from giving any competitor of
 Gaussian, Inc. access to this program.  By using this program,
 the user acknowledges that Gaussian, Inc. is engaged in the
 business of creating and licensing software in the field of
 computational chemistry and represents and warrants to the
 licensee that it is not a competitor of Gaussian, Inc. and that
 it will not use this program in any manner prohibited above.
 ---------------------------------------------------------------
  

 Cite this work as:
 Gaussian 16, Revision A.03,
 M. J. Frisch, G. W. Trucks, H. B. Schlegel, G. E. Scuseria, 
 M. A. Robb, J. R. Cheeseman, G. Scalmani, V. Barone, 
 G. A. Petersson, H. Nakatsuji, X. Li, M. Caricato, A. V. Marenich, 
 J. Bloino, B. G. Janesko, R. Gomperts, B. Mennucci, H. P. Hratchian, 
 J. V. Ortiz, A. F. Izmaylov, J. L. Sonnenberg, D. Williams-Young, 
 F. Ding, F. Lipparini, F. Egidi, J. Goings, B. Peng, A. Petrone, 
 T. Henderson, D. Ranasinghe, V. G. Zakrzewski, J. Gao, N. Rega, 
 G. Zheng, W. Liang, M. Hada, M. Ehara, K. Toyota, R. Fukuda, 
 J. Hasegawa, M. Ishida, T. Nakajima, Y. Honda, O. Kitao, H. Nakai, 
 T. Vreven, K. Throssell, J. A. Montgomery, Jr., J. E. Peralta, 
 F. Ogliaro, M. J. Bearpark, J. J. Heyd, E. N. Brothers, K. N. Kudin, 
 V. N. Staroverov, T. A. Keith, R. Kobayashi, J. Normand, 
 K. Raghavachari, A. P. Rendell, J. C. Burant, S. S. Iyengar, 
 J. Tomasi, M. Cossi, J. M. Millam, M. Klene, C. Adamo, R. Cammi, 
 J. W. Ochterski, R. L. Martin, K. Morokuma, O. Farkas, 
 J. B. Foresman, and D. J. Fox, Gaussian, Inc., Wallingford CT, 2016.
 
 ******************************************
 Gaussian 16:  ES64L-G16RevA.03 25-Dec-2016
                 5-Jun-2019 
 ******************************************
 %nprocshared=2
 Will use up to    2 processors via shared memory.
 %mem=2GB
 ----------------
 # 6-31g(d) wb97x
 ----------------
 1/38=1,172=1/1;
 2/12=2,17=6,18=5,40=1/2;
 3/5=1,6=6,7=1,11=2,25=1,30=1,74=-57/1,2,3;
 4//1;
 5/5=2,38=5/2;
 6/7=2,8=2,9=2,10=2,28=1/1;
 99/5=1,9=1/99;
 ---------------------
 tmpdir/M2_ref_111.gjf
 ---------------------
 Symbolic Z-matrix:
 Charge =  0 Multiplicity = 1
 C                    -0.88004   0.16142   13.11387 
 C                     0.3931   -0.13857   13.59764 
 C                     0.58085  -1.27787   14.38415 
 H                    -1.08401   1.06928   12.50554 
 H                    -1.66421  -0.43232   13.33574 
 H                     1.23073   0.50003   13.37037 
 O                    -0.37727  -2.02153   14.66262 
 H                     1.56227  -1.57112   14.79086 
 
                          Input orientation:                          
 ---------------------------------------------------------------------
 Center     Atomic      Atomic             Coordinates (Angstroms)
 Number     Number       Type             X           Y           Z
 ---------------------------------------------------------------------
      1          6           0       -0.880038    0.161420   13.113865
      2          6           0        0.393095   -0.138565   13.597645
      3          6           0        0.580851   -1.277869   14.384148
      4          1           0       -1.084013    1.069278   12.505541
      5          1           0       -1.664206   -0.432319   13.335740
      6          1           0        1.230734    0.500032   13.370366
      7          8           0       -0.377274   -2.021529   14.662615
      8          1           0        1.562266   -1.571121   14.790858
 ---------------------------------------------------------------------
                    Distance matrix (angstroms):
                    1          2          3          4          5
     1  C    0.000000
     2  C    1.394597   0.000000
     3  C    2.412337   1.397087   0.000000
     4  H    1.111697   2.198505   3.436573   0.000000
     5  H    1.008302   2.094605   2.618090   1.811256   0.000000
     6  H    2.153093   1.077544   2.147332   2.535747   3.041571
     7  O    2.723355   2.296341   1.244419   3.834780   2.437699
     8  H    3.432033   2.200667   1.102082   4.381458   3.718112
                    6          7          8
     6  H    0.000000
     7  O    3.257893   0.000000
     8  H    2.533256   1.995277   0.000000
 Stoichiometry    C3H4O
 Framework group  C1[X(C3H4O)]
 Deg. of freedom    18
 Full point group                 C1      NOp   1
 Largest Abelian subgroup         C1      NOp   1
 Largest concise Abelian subgroup C1      NOp   1
                         Standard orientation:                         
 ---------------------------------------------------------------------
 Center     Atomic      Atomic             Coordinates (Angstroms)
 Number     Number       Type             X           Y           Z
 ---------------------------------------------------------------------
      1          6           0       -1.419898   -0.470459   -0.005265
      2          6           0       -0.593082    0.652595   -0.000071
      3          6           0        0.794185    0.487238   -0.000785
      4          1           0       -2.528403   -0.390257    0.020319
      5          1           0       -1.023109   -1.397393   -0.000114
      6          1           0       -1.014828    1.644163    0.004783
      7          8           0        1.297466   -0.650865    0.001766
      8          1           0        1.499379    1.334165   -0.002388
 ---------------------------------------------------------------------
 Rotational constants (GHZ):          21.1767829           6.8582536           5.1805909
 Standard basis: 6-31G(d) (6D, 7F)
 There are    68 symmetry adapted cartesian basis functions of A   symmetry.
 There are    68 symmetry adapted basis functions of A   symmetry.
    68 basis functions,   128 primitive gaussians,    68 cartesian basis functions
    15 alpha electrons       15 beta electrons
       nuclear repulsion energy       105.6516405356 Hartrees.
 NAtoms=    8 NActive=    8 NUniq=    8 SFac= 1.00D+00 NAtFMM=   60 NAOKFM=F Big=F
 Integral buffers will be    131072 words long.
 Raffenetti 2 integral format.
 Two-electron integral symmetry is turned on.
 One-electron integrals computed using PRISM.
 NBasis=    68 RedAO= T EigKep=  2.87D-03  NBF=    68
 NBsUse=    68 1.00D-06 EigRej= -1.00D+00 NBFU=    68
 ExpMin= 1.61D-01 ExpMax= 5.48D+03 ExpMxC= 8.25D+02 IAcc=3 IRadAn=         5 AccDes= 0.00D+00
 Harris functional with IExCor= 4538 and IRadAn=       5 diagonalized for initial guess.
 HarFok:  IExCor= 4538 AccDes= 0.00D+00 IRadAn=         5 IDoV= 1 UseB2=F ITyADJ=14
 ICtDFT=  3500011 ScaDFX=  1.000000  1.000000  1.000000  1.000000
 FoFCou: FMM=F IPFlag=           0 FMFlag=      100000 FMFlg1=           0
         NFxFlg=           0 DoJE=T BraDBF=F KetDBF=T FulRan=T
         wScrn=  0.000000 ICntrl=       500 IOpCl=  0 I1Cent=   200000004 NGrid=           0
         NMat0=    1 NMatS0=      1 NMatT0=    0 NMatD0=    1 NMtDS0=    0 NMtDT0=    0
 Petite list used in FoFCou.
 Keep R1 ints in memory in canonical form, NReq=7290824.
 Requested convergence on RMS density matrix=1.00D-08 within 128 cycles.
 Requested convergence on MAX density matrix=1.00D-06.
 Requested convergence on             energy=1.00D-06.
 No special actions if energy rises.
 Integral accuracy reduced to 1.0D-05 until final iterations.
 Initial convergence to 1.0D-05 achieved.  Increase integral accuracy.
 SCF Done:  E(RwB97X) =  -191.836320786     A.U. after   14 cycles
            NFock= 14  Conv=0.95D-08     -V/T= 2.0089

 **********************************************************************

            Population analysis using the SCF density.

 **********************************************************************

 Orbital symmetries:
       Occupied  (A) (A) (A) (A) (A) (A) (A) (A) (A) (A) (A) (A)
                 (A) (A) (A)
       Virtual   (A) (A) (A) (A) (A) (A) (A) (A) (A) (A) (A) (A)
                 (A) (A) (A) (A) (A) (A) (A) (A) (A) (A) (A) (A)
                 (A) (A) (A) (A) (A) (A) (A) (A) (A) (A) (A) (A)
                 (A) (A) (A) (A) (A) (A) (A) (A) (A) (A) (A) (A)
                 (A) (A) (A) (A) (A)
 The electronic state is 1-A.
 Alpha  occ. eigenvalues --  -19.20368 -10.35386 -10.30446 -10.29109  -1.14917
 Alpha  occ. eigenvalues --   -0.92237  -0.79387  -0.66709  -0.63051  -0.55490
 Alpha  occ. eigenvalues --   -0.52274  -0.50000  -0.49197  -0.37036  -0.35557
 Alpha virt. eigenvalues --    0.00835   0.16999   0.19999   0.23867   0.26331
 Alpha virt. eigenvalues --    0.29938   0.34821   0.41361   0.45866   0.62048
 Alpha virt. eigenvalues --    0.62812   0.68471   0.68786   0.70436   0.74292
 Alpha virt. eigenvalues --    0.75048   0.78600   0.92209   0.95598   0.98080
 Alpha virt. eigenvalues --    0.99050   1.03705   1.08784   1.10927   1.20061
 Alpha virt. eigenvalues --    1.20698   1.24513   1.39195   1.43158   1.52017
 Alpha virt. eigenvalues --    1.63803   1.65131   1.75774   1.87501   1.94307
 Alpha virt. eigenvalues --    1.95113   2.04226   2.06022   2.17953   2.30358
 Alpha virt. eigenvalues --    2.32494   2.39575   2.41621   2.64327   2.65309
 Alpha virt. eigenvalues --    2.71841   2.88554   3.00884   3.18397   3.95582
 Alpha virt. eigenvalues --    4.20657   4.27148   4.50939
          Condensed to atoms (all electrons):
               1          2          3          4          5          6
     1  C    5.022126   0.581635  -0.026187   0.366385   0.385488  -0.035984
     2  C    0.581635   5.205721   0.320378  -0.029314  -0.036070   0.359082
     3  C   -0.026187   0.320378   4.590798   0.003518  -0.008116  -0.025994
     4  H    0.366385  -0.029314   0.003518   0.510903  -0.029179  -0.002841
     5  H    0.385488  -0.036070  -0.008116  -0.029179   0.452941   0.003753
     6  H   -0.035984   0.359082  -0.025994  -0.002841   0.003753   0.524787
     7  O   -0.001463  -0.104345   0.561227   0.000590   0.015659   0.003142
     8  H    0.007030  -0.105527   0.380400  -0.000019   0.000526   0.001561
               7          8
     1  C   -0.001463   0.007030
     2  C   -0.104345  -0.105527
     3  C    0.561227   0.380400
     4  H    0.000590  -0.000019
     5  H    0.015659   0.000526
     6  H    0.003142   0.001561
     7  O    8.003083  -0.056225
     8  H   -0.056225   0.631423
 Mulliken charges:
               1
     1  C   -0.299029
     2  C   -0.191560
     3  C    0.203977
     4  H    0.179959
     5  H    0.214998
     6  H    0.172494
     7  O   -0.421669
     8  H    0.140830
 Sum of Mulliken charges =  -0.00000
 Mulliken charges with hydrogens summed into heavy atoms:
               1
     1  C    0.095927
     2  C   -0.019066
     3  C    0.344807
     7  O   -0.421669
 Electronic spatial extent (au):  <R**2>=            256.7547
 Charge=             -0.0000 electrons
 Dipole moment (field-independent basis, Debye):
    X=             -2.1839    Y=              1.7429    Z=              0.0138  Tot=              2.7942
 Quadrupole moment (field-independent basis, Debye-Ang):
   XX=            -23.1158   YY=            -21.8507   ZZ=            -24.3755
   XY=              3.3674   XZ=             -0.0542   YZ=              0.0012
 Traceless Quadrupole moment (field-independent basis, Debye-Ang):
   XX=             -0.0018   YY=              1.2633   ZZ=             -1.2615
   XY=              3.3674   XZ=             -0.0542   YZ=              0.0012
 Octapole moment (field-independent basis, Debye-Ang**2):
  XXX=             -5.5739  YYY=             -0.8109  ZZZ=              0.0320  XYY=             -0.5679
  XXY=              2.0043  XXZ=              0.1293  XZZ=              3.2404  YZZ=             -1.1790
  YYZ=              0.0253  XYZ=              0.0136
 Hexadecapole moment (field-independent basis, Debye-Ang**3):
 XXXX=           -201.4035 YYYY=            -83.6335 ZZZZ=            -22.7462 XXXY=              5.9811
 XXXZ=             -0.3940 YYYX=             -1.4158 YYYZ=             -0.0027 ZZZX=             -0.0341
 ZZZY=             -0.0070 XXYY=            -48.8301 XXZZ=            -41.0981 YYZZ=            -19.1900
 XXYZ=             -0.0431 YYXZ=             -0.0411 ZZXY=             -0.6575
 N-N= 1.056516405356D+02 E-N=-6.587303863991D+02  KE= 1.901439711486D+02
 1\1\GINC-NODE91\SP\RwB97X\6-31G(d)\C3H4O1\YANZ\05-Jun-2019\0\\# 6-31g(
 d) wb97x\\tmpdir/M2_ref_111.gjf\\0,1\C,0,-0.880038,0.16142,13.113865\C
 ,0,0.393095,-0.138565,13.597645\C,0,0.580851,-1.277869,14.384148\H,0,-
 1.08401257,1.06927843,12.50554122\H,0,-1.66420561,-0.43231926,13.33573
 968\H,0,1.230734,0.500032,13.370366\O,0,-0.37727428,-2.02152885,14.662
 61523\H,0,1.56226591,-1.57112106,14.79085839\\Version=ES64L-G16RevA.03
 \State=1-A\HF=-191.8363208\RMSD=9.471e-09\Dipole=0.4377736,0.8878692,-
 0.4780422\Quadrupole=2.0070334,-1.3584198,-0.6486136,-1.3201757,1.5033
 217,0.0225732\PG=C01 [X(C3H4O1)]\\@


 IT IS UNWORTHY OF EXCELLENT MEN TO LOSE HOURS LIKE SLAVES IN THE LABOR
 OF CALCULATION WHICH COULD BE SAFELY RELEGATED TO ANYONE ELSE
 IF A MACHINE WERE USED.
    -- G.W. VON LEIBNIZ
 Job cpu time:       0 days  0 hours  0 minutes 18.5 seconds.
 Elapsed time:       0 days  0 hours  0 minutes  9.4 seconds.
 File lengths (MBytes):  RWF=      6 Int=      0 D2E=      0 Chk=      1 Scr=      1
 Normal termination of Gaussian 16 at Wed Jun  5 16:57:54 2019.
