 Entering Gaussian System, Link 0=g16
 Initial command:
 /share/apps/gaussian/g16/l1.exe "/tmp/55477.mgr/Gau-318134.inp" -scrdir="/tmp/55477.mgr/"
 Entering Link 1 = /share/apps/gaussian/g16/l1.exe PID=    318135.
  
 Copyright (c) 1988,1990,1992,1993,1995,1998,2003,2009,2016,
            Gaussian, Inc.  All Rights Reserved.
  
 This is part of the Gaussian(R) 16 program.  It is based on
 the Gaussian(R) 09 system (copyright 2009, Gaussian, Inc.),
 the Gaussian(R) 03 system (copyright 2003, Gaussian, Inc.),
 the Gaussian(R) 98 system (copyright 1998, Gaussian, Inc.),
 the Gaussian(R) 94 system (copyright 1995, Gaussian, Inc.),
 the Gaussian 92(TM) system (copyright 1992, Gaussian, Inc.),
 the Gaussian 90(TM) system (copyright 1990, Gaussian, Inc.),
 the Gaussian 88(TM) system (copyright 1988, Gaussian, Inc.),
 the Gaussian 86(TM) system (copyright 1986, Carnegie Mellon
 University), and the Gaussian 82(TM) system (copyright 1983,
 Carnegie Mellon University). Gaussian is a federally registered
 trademark of Gaussian, Inc.
  
 This software contains proprietary and confidential information,
 including trade secrets, belonging to Gaussian, Inc.
  
 This software is provided under written license and may be
 used, copied, transmitted, or stored only in accord with that
 written license.
  
 The following legend is applicable only to US Government
 contracts under FAR:
  
                    RESTRICTED RIGHTS LEGEND
  
 Use, reproduction and disclosure by the US Government is
 subject to restrictions as set forth in subparagraphs (a)
 and (c) of the Commercial Computer Software - Restricted
 Rights clause in FAR 52.227-19.
  
 Gaussian, Inc.
 340 Quinnipiac St., Bldg. 40, Wallingford CT 06492
  
  
 ---------------------------------------------------------------
 Warning -- This program may not be used in any manner that
 competes with the business of Gaussian, Inc. or will provide
 assistance to any competitor of Gaussian, Inc.  The licensee
 of this program is prohibited from giving any competitor of
 Gaussian, Inc. access to this program.  By using this program,
 the user acknowledges that Gaussian, Inc. is engaged in the
 business of creating and licensing software in the field of
 computational chemistry and represents and warrants to the
 licensee that it is not a competitor of Gaussian, Inc. and that
 it will not use this program in any manner prohibited above.
 ---------------------------------------------------------------
  

 Cite this work as:
 Gaussian 16, Revision A.03,
 M. J. Frisch, G. W. Trucks, H. B. Schlegel, G. E. Scuseria, 
 M. A. Robb, J. R. Cheeseman, G. Scalmani, V. Barone, 
 G. A. Petersson, H. Nakatsuji, X. Li, M. Caricato, A. V. Marenich, 
 J. Bloino, B. G. Janesko, R. Gomperts, B. Mennucci, H. P. Hratchian, 
 J. V. Ortiz, A. F. Izmaylov, J. L. Sonnenberg, D. Williams-Young, 
 F. Ding, F. Lipparini, F. Egidi, J. Goings, B. Peng, A. Petrone, 
 T. Henderson, D. Ranasinghe, V. G. Zakrzewski, J. Gao, N. Rega, 
 G. Zheng, W. Liang, M. Hada, M. Ehara, K. Toyota, R. Fukuda, 
 J. Hasegawa, M. Ishida, T. Nakajima, Y. Honda, O. Kitao, H. Nakai, 
 T. Vreven, K. Throssell, J. A. Montgomery, Jr., J. E. Peralta, 
 F. Ogliaro, M. J. Bearpark, J. J. Heyd, E. N. Brothers, K. N. Kudin, 
 V. N. Staroverov, T. A. Keith, R. Kobayashi, J. Normand, 
 K. Raghavachari, A. P. Rendell, J. C. Burant, S. S. Iyengar, 
 J. Tomasi, M. Cossi, J. M. Millam, M. Klene, C. Adamo, R. Cammi, 
 J. W. Ochterski, R. L. Martin, K. Morokuma, O. Farkas, 
 J. B. Foresman, and D. J. Fox, Gaussian, Inc., Wallingford CT, 2016.
 
 ******************************************
 Gaussian 16:  ES64L-G16RevA.03 25-Dec-2016
                 5-Jun-2019 
 ******************************************
 %nprocshared=2
 Will use up to    2 processors via shared memory.
 %mem=2GB
 ----------------
 # 6-31g(d) wb97x
 ----------------
 1/38=1,172=1/1;
 2/12=2,17=6,18=5,40=1/2;
 3/5=1,6=6,7=1,11=2,25=1,30=1,74=-57/1,2,3;
 4//1;
 5/5=2,38=5/2;
 6/7=2,8=2,9=2,10=2,28=1/1;
 99/5=1,9=1/99;
 --------------------
 tmpdir/M2_ref_53.gjf
 --------------------
 Symbolic Z-matrix:
 Charge =  0 Multiplicity = 1
 C                    -4.26962   8.04416   8.25905 
 N                    -3.83196   6.72409   8.69119 
 C                    -2.38771   6.59016   8.63575 
 H                    -3.98842   8.23874   7.2062 
 H                    -3.77997   8.80014   8.88436 
 H                    -5.36275   8.13541   8.36038 
 H                    -4.30193   6.0045    8.14048 
 H                    -2.01589   6.56011   7.59246 
 H                    -1.95354   7.48965   9.09299 
 H                    -2.01715   5.7128    9.17905 
 
                          Input orientation:                          
 ---------------------------------------------------------------------
 Center     Atomic      Atomic             Coordinates (Angstroms)
 Number     Number       Type             X           Y           Z
 ---------------------------------------------------------------------
      1          6           0       -4.269619    8.044160    8.259048
      2          7           0       -3.831962    6.724086    8.691193
      3          6           0       -2.387713    6.590156    8.635750
      4          1           0       -3.988423    8.238737    7.206202
      5          1           0       -3.779965    8.800140    8.884362
      6          1           0       -5.362752    8.135408    8.360375
      7          1           0       -4.301934    6.004504    8.140480
      8          1           0       -2.015890    6.560106    7.592464
      9          1           0       -1.953540    7.489653    9.092992
     10          1           0       -2.017152    5.712796    9.179054
 ---------------------------------------------------------------------
                    Distance matrix (angstroms):
                    1          2          3          4          5
     1  C    0.000000
     2  N    1.456327   0.000000
     3  C    2.407821   1.451505   0.000000
     4  H    1.106985   2.126933   2.706233   0.000000
     5  H    1.096487   2.085670   2.623776   1.781811   0.000000
     6  H    1.101605   2.108219   3.363702   1.797658   1.794894
     7  H    2.043355   1.020763   2.062165   2.441918   2.939625
     8  H    2.779576   2.128899   1.107972   2.618757   3.130290
     9  H    2.523324   2.067850   1.098486   2.874344   2.257594
    10  H    3.369759   2.134069   1.096474   3.762769   3.567358
                    6          7          8          9         10
     6  H    0.000000
     7  H    2.390490   0.000000
     8  H    3.777929   2.415577   0.000000
     9  H    3.546330   2.937329   1.766219   0.000000
    10  H    4.210976   2.526650   1.798667   1.780077   0.000000
 Stoichiometry    C2H7N
 Framework group  C1[X(C2H7N)]
 Deg. of freedom    24
 Full point group                 C1      NOp   1
 Largest Abelian subgroup         C1      NOp   1
 Largest concise Abelian subgroup C1      NOp   1
                         Standard orientation:                         
 ---------------------------------------------------------------------
 Center     Atomic      Atomic             Coordinates (Angstroms)
 Number     Number       Type             X           Y           Z
 ---------------------------------------------------------------------
      1          6           0       -1.202404   -0.229474    0.016350
      2          7           0        0.000545    0.574736   -0.148115
      3          6           0        1.205386   -0.217393    0.018482
      4          1           0       -1.263573   -0.662082    1.033466
      5          1           0       -1.173589   -1.057800   -0.701515
      6          1           0       -2.098952    0.384026   -0.166273
      7          1           0       -0.022961    1.370117    0.491240
      8          1           0        1.351557   -0.529639    1.071448
      9          1           0        1.078231   -1.140617   -0.563033
     10          1           0        2.107578    0.294046   -0.337515
 ---------------------------------------------------------------------
 Rotational constants (GHZ):          34.1236792           9.4648395           8.3068329
 Standard basis: 6-31G(d) (6D, 7F)
 There are    59 symmetry adapted cartesian basis functions of A   symmetry.
 There are    59 symmetry adapted basis functions of A   symmetry.
    59 basis functions,   112 primitive gaussians,    59 cartesian basis functions
    13 alpha electrons       13 beta electrons
       nuclear repulsion energy        84.2148542091 Hartrees.
 NAtoms=   10 NActive=   10 NUniq=   10 SFac= 1.00D+00 NAtFMM=   60 NAOKFM=F Big=F
 Integral buffers will be    131072 words long.
 Raffenetti 2 integral format.
 Two-electron integral symmetry is turned on.
 One-electron integrals computed using PRISM.
 NBasis=    59 RedAO= T EigKep=  7.59D-03  NBF=    59
 NBsUse=    59 1.00D-06 EigRej= -1.00D+00 NBFU=    59
 ExpMin= 1.61D-01 ExpMax= 4.17D+03 ExpMxC= 6.27D+02 IAcc=3 IRadAn=         5 AccDes= 0.00D+00
 Harris functional with IExCor= 4538 and IRadAn=       5 diagonalized for initial guess.
 HarFok:  IExCor= 4538 AccDes= 0.00D+00 IRadAn=         5 IDoV= 1 UseB2=F ITyADJ=14
 ICtDFT=  3500011 ScaDFX=  1.000000  1.000000  1.000000  1.000000
 FoFCou: FMM=F IPFlag=           0 FMFlag=      100000 FMFlg1=           0
         NFxFlg=           0 DoJE=T BraDBF=F KetDBF=T FulRan=T
         wScrn=  0.000000 ICntrl=       500 IOpCl=  0 I1Cent=   200000004 NGrid=           0
         NMat0=    1 NMatS0=      1 NMatT0=    0 NMatD0=    1 NMtDS0=    0 NMtDT0=    0
 Petite list used in FoFCou.
 Keep R1 ints in memory in canonical form, NReq=4895189.
 Requested convergence on RMS density matrix=1.00D-08 within 128 cycles.
 Requested convergence on MAX density matrix=1.00D-06.
 Requested convergence on             energy=1.00D-06.
 No special actions if energy rises.
 Integral accuracy reduced to 1.0D-05 until final iterations.
 Initial convergence to 1.0D-05 achieved.  Increase integral accuracy.
 SCF Done:  E(RwB97X) =  -135.119581488     A.U. after   13 cycles
            NFock= 13  Conv=0.94D-08     -V/T= 2.0102

 **********************************************************************

            Population analysis using the SCF density.

 **********************************************************************

 Orbital symmetries:
       Occupied  (A) (A) (A) (A) (A) (A) (A) (A) (A) (A) (A) (A)
                 (A)
       Virtual   (A) (A) (A) (A) (A) (A) (A) (A) (A) (A) (A) (A)
                 (A) (A) (A) (A) (A) (A) (A) (A) (A) (A) (A) (A)
                 (A) (A) (A) (A) (A) (A) (A) (A) (A) (A) (A) (A)
                 (A) (A) (A) (A) (A) (A) (A) (A) (A) (A)
 The electronic state is 1-A.
 Alpha  occ. eigenvalues --  -14.38717 -10.28091 -10.28000  -1.02097  -0.81937
 Alpha  occ. eigenvalues --   -0.74547  -0.59597  -0.54865  -0.53197  -0.48621
 Alpha  occ. eigenvalues --   -0.46853  -0.46224  -0.30914
 Alpha virt. eigenvalues --    0.18184   0.22955   0.24660   0.25447   0.26409
 Alpha virt. eigenvalues --    0.28968   0.29847   0.31874   0.36770   0.63964
 Alpha virt. eigenvalues --    0.64307   0.67899   0.69157   0.70914   0.84305
 Alpha virt. eigenvalues --    0.86248   0.92984   0.94640   0.98315   1.01651
 Alpha virt. eigenvalues --    1.04217   1.05896   1.06687   1.08935   1.09748
 Alpha virt. eigenvalues --    1.13810   1.46417   1.50581   1.57847   1.62100
 Alpha virt. eigenvalues --    1.91994   1.99602   2.12713   2.16797   2.19300
 Alpha virt. eigenvalues --    2.21105   2.33063   2.33635   2.45651   2.53752
 Alpha virt. eigenvalues --    2.61583   2.74351   2.86891   3.99957   4.35980
 Alpha virt. eigenvalues --    4.42056
          Condensed to atoms (all electrons):
               1          2          3          4          5          6
     1  C    4.958455   0.320103  -0.064880   0.375297   0.389262   0.389285
     2  N    0.320103   6.850407   0.317088  -0.058881  -0.039797  -0.033919
     3  C   -0.064880   0.317088   4.955348  -0.001567  -0.006438   0.004946
     4  H    0.375297  -0.058881  -0.001567   0.634657  -0.041631  -0.036325
     5  H    0.389262  -0.039797  -0.006438  -0.041631   0.547052  -0.020583
     6  H    0.389285  -0.033919   0.004946  -0.036325  -0.020583   0.536029
     7  H   -0.039821   0.328969  -0.038355  -0.004067   0.005229  -0.001930
     8  H   -0.001312  -0.056382   0.376831   0.009711  -0.001302  -0.000318
     9  H   -0.006511  -0.040288   0.388992  -0.001654   0.007876   0.000207
    10  H    0.004552  -0.033906   0.390121  -0.000345   0.000183  -0.000133
               7          8          9         10
     1  C   -0.039821  -0.001312  -0.006511   0.004552
     2  N    0.328969  -0.056382  -0.040288  -0.033906
     3  C   -0.038355   0.376831   0.388992   0.390121
     4  H   -0.004067   0.009711  -0.001654  -0.000345
     5  H    0.005229  -0.001302   0.007876   0.000183
     6  H   -0.001930  -0.000318   0.000207  -0.000133
     7  H    0.445164  -0.005238   0.005375  -0.000673
     8  H   -0.005238   0.629832  -0.039421  -0.037859
     9  H    0.005375  -0.039421   0.552736  -0.022918
    10  H   -0.000673  -0.037859  -0.022918   0.535174
 Mulliken charges:
               1
     1  C   -0.324430
     2  N   -0.553394
     3  C   -0.322085
     4  H    0.124803
     5  H    0.160148
     6  H    0.162741
     7  H    0.305348
     8  H    0.125458
     9  H    0.155606
    10  H    0.165804
 Sum of Mulliken charges =  -0.00000
 Mulliken charges with hydrogens summed into heavy atoms:
               1
     1  C    0.123262
     2  N   -0.248046
     3  C    0.124784
 Electronic spatial extent (au):  <R**2>=            202.3509
 Charge=              0.0000 electrons
 Dipole moment (field-independent basis, Debye):
    X=             -0.0287    Y=             -0.2161    Z=              1.0258  Tot=              1.0487
 Quadrupole moment (field-independent basis, Debye-Ang):
   XX=            -19.5262   YY=            -19.9797   ZZ=            -21.6551
   XY=             -0.0985   XZ=             -0.0633   YZ=              2.0414
 Traceless Quadrupole moment (field-independent basis, Debye-Ang):
   XX=              0.8608   YY=              0.4073   ZZ=             -1.2681
   XY=             -0.0985   XZ=             -0.0633   YZ=              2.0414
 Octapole moment (field-independent basis, Debye-Ang**2):
  XXX=              0.0949  YYY=              2.9865  ZZZ=              1.2428  XYY=             -0.1767
  XXY=              1.9151  XXZ=             -1.2021  XZZ=              0.0502  YZZ=             -0.3846
  YYZ=              1.3940  XYZ=             -0.1789
 Hexadecapole moment (field-independent basis, Debye-Ang**3):
 XXXX=           -172.4760 YYYY=            -53.2325 ZZZZ=            -37.8949 XXXY=             -0.5154
 XXXZ=             -0.7545 YYYX=             -0.2814 YYYZ=              4.8610 ZZZX=              0.1485
 ZZZY=              1.8811 XXYY=            -38.6167 XXZZ=            -36.6759 YYZZ=            -15.2849
 XXYZ=             -0.1162 YYXZ=              0.0001 ZZXY=              0.1926
 N-N= 8.421485420911D+01 E-N=-4.814441204208D+02  KE= 1.337517426621D+02
 1\1\GINC-NODE91\SP\RwB97X\6-31G(d)\C2H7N1\YANZ\05-Jun-2019\0\\# 6-31g(
 d) wb97x\\tmpdir/M2_ref_53.gjf\\0,1\C,0,-4.269619,8.04416,8.259048\N,0
 ,-3.831962,6.724086,8.691193\C,0,-2.387713,6.590156,8.63575\H,0,-3.988
 423,8.238737,7.206202\H,0,-3.779965,8.80014,8.884362\H,0,-5.36275201,8
 .135408,8.36037539\H,0,-4.30193446,6.00450387,8.14047965\H,0,-2.01589,
 6.560106,7.592464\H,0,-1.95354,7.489653,9.092992\H,0,-2.01715214,5.712
 79603,9.17905395\\Version=ES64L-G16RevA.03\State=1-A\HF=-135.1195815\R
 MSD=9.390e-09\Dipole=0.0683036,0.0017985,-0.4069061\Quadrupole=0.45743
 27,0.7252228,-1.1826555,-0.026323,1.082759,0.8752937\PG=C01 [X(C2H7N1)
 ]\\@


 ... THIS SEEMS PLAINLY ABSURD; BUT WHOEVER WISHES TO BECOME A 
 PHILOSOPHER MUST LEARN NOT TO BE FRIGHTENED BY ABSURDITIES.

                          -- BERTRAND RUSSELL
 Job cpu time:       0 days  0 hours  0 minutes 17.9 seconds.
 Elapsed time:       0 days  0 hours  0 minutes  9.0 seconds.
 File lengths (MBytes):  RWF=      6 Int=      0 D2E=      0 Chk=      1 Scr=      1
 Normal termination of Gaussian 16 at Wed Jun  5 16:57:32 2019.
