 Entering Gaussian System, Link 0=g16
 Initial command:
 /share/apps/gaussian/g16/l1.exe "/tmp/55477.mgr/Gau-318852.inp" -scrdir="/tmp/55477.mgr/"
 Entering Link 1 = /share/apps/gaussian/g16/l1.exe PID=    318853.
  
 Copyright (c) 1988,1990,1992,1993,1995,1998,2003,2009,2016,
            Gaussian, Inc.  All Rights Reserved.
  
 This is part of the Gaussian(R) 16 program.  It is based on
 the Gaussian(R) 09 system (copyright 2009, Gaussian, Inc.),
 the Gaussian(R) 03 system (copyright 2003, Gaussian, Inc.),
 the Gaussian(R) 98 system (copyright 1998, Gaussian, Inc.),
 the Gaussian(R) 94 system (copyright 1995, Gaussian, Inc.),
 the Gaussian 92(TM) system (copyright 1992, Gaussian, Inc.),
 the Gaussian 90(TM) system (copyright 1990, Gaussian, Inc.),
 the Gaussian 88(TM) system (copyright 1988, Gaussian, Inc.),
 the Gaussian 86(TM) system (copyright 1986, Carnegie Mellon
 University), and the Gaussian 82(TM) system (copyright 1983,
 Carnegie Mellon University). Gaussian is a federally registered
 trademark of Gaussian, Inc.
  
 This software contains proprietary and confidential information,
 including trade secrets, belonging to Gaussian, Inc.
  
 This software is provided under written license and may be
 used, copied, transmitted, or stored only in accord with that
 written license.
  
 The following legend is applicable only to US Government
 contracts under FAR:
  
                    RESTRICTED RIGHTS LEGEND
  
 Use, reproduction and disclosure by the US Government is
 subject to restrictions as set forth in subparagraphs (a)
 and (c) of the Commercial Computer Software - Restricted
 Rights clause in FAR 52.227-19.
  
 Gaussian, Inc.
 340 Quinnipiac St., Bldg. 40, Wallingford CT 06492
  
  
 ---------------------------------------------------------------
 Warning -- This program may not be used in any manner that
 competes with the business of Gaussian, Inc. or will provide
 assistance to any competitor of Gaussian, Inc.  The licensee
 of this program is prohibited from giving any competitor of
 Gaussian, Inc. access to this program.  By using this program,
 the user acknowledges that Gaussian, Inc. is engaged in the
 business of creating and licensing software in the field of
 computational chemistry and represents and warrants to the
 licensee that it is not a competitor of Gaussian, Inc. and that
 it will not use this program in any manner prohibited above.
 ---------------------------------------------------------------
  

 Cite this work as:
 Gaussian 16, Revision A.03,
 M. J. Frisch, G. W. Trucks, H. B. Schlegel, G. E. Scuseria, 
 M. A. Robb, J. R. Cheeseman, G. Scalmani, V. Barone, 
 G. A. Petersson, H. Nakatsuji, X. Li, M. Caricato, A. V. Marenich, 
 J. Bloino, B. G. Janesko, R. Gomperts, B. Mennucci, H. P. Hratchian, 
 J. V. Ortiz, A. F. Izmaylov, J. L. Sonnenberg, D. Williams-Young, 
 F. Ding, F. Lipparini, F. Egidi, J. Goings, B. Peng, A. Petrone, 
 T. Henderson, D. Ranasinghe, V. G. Zakrzewski, J. Gao, N. Rega, 
 G. Zheng, W. Liang, M. Hada, M. Ehara, K. Toyota, R. Fukuda, 
 J. Hasegawa, M. Ishida, T. Nakajima, Y. Honda, O. Kitao, H. Nakai, 
 T. Vreven, K. Throssell, J. A. Montgomery, Jr., J. E. Peralta, 
 F. Ogliaro, M. J. Bearpark, J. J. Heyd, E. N. Brothers, K. N. Kudin, 
 V. N. Staroverov, T. A. Keith, R. Kobayashi, J. Normand, 
 K. Raghavachari, A. P. Rendell, J. C. Burant, S. S. Iyengar, 
 J. Tomasi, M. Cossi, J. M. Millam, M. Klene, C. Adamo, R. Cammi, 
 J. W. Ochterski, R. L. Martin, K. Morokuma, O. Farkas, 
 J. B. Foresman, and D. J. Fox, Gaussian, Inc., Wallingford CT, 2016.
 
 ******************************************
 Gaussian 16:  ES64L-G16RevA.03 25-Dec-2016
                 5-Jun-2019 
 ******************************************
 %nprocshared=2
 Will use up to    2 processors via shared memory.
 %mem=2GB
 ----------------
 # 6-31g(d) wb97x
 ----------------
 1/38=1,172=1/1;
 2/12=2,17=6,18=5,40=1/2;
 3/5=1,6=6,7=1,11=2,25=1,30=1,74=-57/1,2,3;
 4//1;
 5/5=2,38=5/2;
 6/7=2,8=2,9=2,10=2,28=1/1;
 99/5=1,9=1/99;
 ---------------------
 tmpdir/M2_ref_125.gjf
 ---------------------
 Symbolic Z-matrix:
 Charge =  0 Multiplicity = 1
 C                    -1.76035  -1.78362   14.20776 
 C                    -0.50593  -2.12139   14.70001 
 C                    -0.32443  -3.35519   15.54789 
 O                    -1.93928  -0.79195   13.51358 
 H                    -2.60631  -2.42489   14.44605 
 O                     0.45219  -1.37773   14.42154 
 H                    -1.27948  -3.86961   15.68462 
 H                     0.06139  -3.11553   16.5476 
 H                     0.36703  -4.07413   15.08831 
 
                          Input orientation:                          
 ---------------------------------------------------------------------
 Center     Atomic      Atomic             Coordinates (Angstroms)
 Number     Number       Type             X           Y           Z
 ---------------------------------------------------------------------
      1          6           0       -1.760345   -1.783623   14.207761
      2          6           0       -0.505932   -2.121388   14.700008
      3          6           0       -0.324432   -3.355190   15.547891
      4          8           0       -1.939285   -0.791953   13.513585
      5          1           0       -2.606307   -2.424887   14.446048
      6          8           0        0.452193   -1.377728   14.421541
      7          1           0       -1.279484   -3.869605   15.684622
      8          1           0        0.061389   -3.115527   16.547597
      9          1           0        0.367026   -4.074128   15.088315
 ---------------------------------------------------------------------
                    Distance matrix (angstroms):
                    1          2          3          4          5
     1  C    0.000000
     2  C    1.389224   0.000000
     3  C    2.515476   1.508017   0.000000
     4  O    1.223646   2.286810   3.649156   0.000000
     5  H    1.087958   2.137331   2.699347   1.995214   0.000000
     6  O    2.259597   1.244419   2.404614   2.624249   3.232888
     7  H    2.600705   2.150374   1.093363   3.823700   2.319857
     8  H    3.250772   2.173419   1.098047   4.313574   3.465558
     9  H    3.247691   2.173944   1.098270   4.309468   3.460233
                    6          7          8          9
     6  O    0.000000
     7  H    3.286872   0.000000
     8  H    2.773588   1.763888   0.000000
     9  H    2.778923   1.763067   1.772522   0.000000
 Stoichiometry    C3H4O2
 Framework group  C1[X(C3H4O2)]
 Deg. of freedom    21
 Full point group                 C1      NOp   1
 Largest Abelian subgroup         C1      NOp   1
 Largest concise Abelian subgroup C1      NOp   1
                         Standard orientation:                         
 ---------------------------------------------------------------------
 Center     Atomic      Atomic             Coordinates (Angstroms)
 Number     Number       Type             X           Y           Z
 ---------------------------------------------------------------------
      1          6           0        0.791718   -0.634025   -0.002139
      2          6           0       -0.364563    0.136010   -0.000062
      3          6           0       -1.721276   -0.522355    0.000761
      4          8           0        1.906723   -0.129984    0.001716
      5          1           0        0.698821   -1.718008   -0.003681
      6          8           0       -0.243428    1.374519   -0.000626
      7          1           0       -1.618560   -1.610866   -0.005235
      8          1           0       -2.313768   -0.247201   -0.881822
      9          1           0       -2.308122   -0.257985    0.890658
 ---------------------------------------------------------------------
 Rotational constants (GHZ):          11.0343165           4.2489788           3.1278236
 Standard basis: 6-31G(d) (6D, 7F)
 There are    83 symmetry adapted cartesian basis functions of A   symmetry.
 There are    83 symmetry adapted basis functions of A   symmetry.
    83 basis functions,   156 primitive gaussians,    83 cartesian basis functions
    19 alpha electrons       19 beta electrons
       nuclear repulsion energy       161.9785674927 Hartrees.
 NAtoms=    9 NActive=    9 NUniq=    9 SFac= 1.00D+00 NAtFMM=   60 NAOKFM=F Big=F
 Integral buffers will be    131072 words long.
 Raffenetti 2 integral format.
 Two-electron integral symmetry is turned on.
 One-electron integrals computed using PRISM.
 NBasis=    83 RedAO= T EigKep=  2.35D-03  NBF=    83
 NBsUse=    83 1.00D-06 EigRej= -1.00D+00 NBFU=    83
 ExpMin= 1.61D-01 ExpMax= 5.48D+03 ExpMxC= 8.25D+02 IAcc=3 IRadAn=         5 AccDes= 0.00D+00
 Harris functional with IExCor= 4538 and IRadAn=       5 diagonalized for initial guess.
 HarFok:  IExCor= 4538 AccDes= 0.00D+00 IRadAn=         5 IDoV= 1 UseB2=F ITyADJ=14
 ICtDFT=  3500011 ScaDFX=  1.000000  1.000000  1.000000  1.000000
 FoFCou: FMM=F IPFlag=           0 FMFlag=      100000 FMFlg1=           0
         NFxFlg=           0 DoJE=T BraDBF=F KetDBF=T FulRan=T
         wScrn=  0.000000 ICntrl=       500 IOpCl=  0 I1Cent=   200000004 NGrid=           0
         NMat0=    1 NMatS0=      1 NMatT0=    0 NMatD0=    1 NMtDS0=    0 NMtDT0=    0
 Petite list used in FoFCou.
 Keep R1 ints in memory in canonical form, NReq=13965830.
 Requested convergence on RMS density matrix=1.00D-08 within 128 cycles.
 Requested convergence on MAX density matrix=1.00D-06.
 Requested convergence on             energy=1.00D-06.
 No special actions if energy rises.
 Integral accuracy reduced to 1.0D-05 until final iterations.
 Initial convergence to 1.0D-05 achieved.  Increase integral accuracy.
 SCF Done:  E(RwB97X) =  -267.053502372     A.U. after   15 cycles
            NFock= 15  Conv=0.67D-08     -V/T= 2.0083

 **********************************************************************

            Population analysis using the SCF density.

 **********************************************************************

 Orbital symmetries:
       Occupied  (A) (A) (A) (A) (A) (A) (A) (A) (A) (A) (A) (A)
                 (A) (A) (A) (A) (A) (A) (A)
       Virtual   (A) (A) (A) (A) (A) (A) (A) (A) (A) (A) (A) (A)
                 (A) (A) (A) (A) (A) (A) (A) (A) (A) (A) (A) (A)
                 (A) (A) (A) (A) (A) (A) (A) (A) (A) (A) (A) (A)
                 (A) (A) (A) (A) (A) (A) (A) (A) (A) (A) (A) (A)
                 (A) (A) (A) (A) (A) (A) (A) (A) (A) (A) (A) (A)
                 (A) (A) (A) (A)
 The electronic state is 1-A.
 Alpha  occ. eigenvalues --  -19.24755 -19.23647 -10.37821 -10.37280 -10.29599
 Alpha  occ. eigenvalues --   -1.20634  -1.16222  -0.92001  -0.82543  -0.67501
 Alpha  occ. eigenvalues --   -0.62318  -0.58528  -0.58405  -0.53484  -0.52223
 Alpha  occ. eigenvalues --   -0.52095  -0.45744  -0.39993  -0.37079
 Alpha virt. eigenvalues --   -0.02970   0.14760   0.18279   0.21410   0.26113
 Alpha virt. eigenvalues --    0.26335   0.30645   0.31345   0.44482   0.52375
 Alpha virt. eigenvalues --    0.57648   0.59741   0.66757   0.69297   0.73367
 Alpha virt. eigenvalues --    0.73696   0.75651   0.80694   0.83179   0.89037
 Alpha virt. eigenvalues --    0.93031   0.95890   0.96329   1.00908   1.04494
 Alpha virt. eigenvalues --    1.06963   1.09308   1.13042   1.13325   1.23284
 Alpha virt. eigenvalues --    1.28178   1.30283   1.38668   1.49789   1.60837
 Alpha virt. eigenvalues --    1.63200   1.76371   1.83056   1.84945   1.85401
 Alpha virt. eigenvalues --    1.90631   1.92953   1.99332   2.03812   2.11200
 Alpha virt. eigenvalues --    2.14223   2.18457   2.28604   2.33076   2.43088
 Alpha virt. eigenvalues --    2.45188   2.56079   2.56373   2.70773   2.79022
 Alpha virt. eigenvalues --    2.90292   2.99801   3.07040   3.30438   3.81928
 Alpha virt. eigenvalues --    4.14783   4.25538   4.35879   4.67045
          Condensed to atoms (all electrons):
               1          2          3          4          5          6
     1  C    4.847207   0.217535  -0.094651   0.552219   0.372191  -0.073281
     2  C    0.217535   4.787481   0.295678  -0.072061  -0.108805   0.550826
     3  C   -0.094651   0.295678   5.345909   0.004057   0.012461  -0.076115
     4  O    0.552219  -0.072061   0.004057   7.905570  -0.050225  -0.006036
     5  H    0.372191  -0.108805   0.012461  -0.050225   0.625878   0.003609
     6  O   -0.073281   0.550826  -0.076115  -0.006036   0.003609   7.991615
     7  H    0.008555  -0.033107   0.356643   0.000107   0.002028   0.003092
     8  H    0.002124  -0.016379   0.371173  -0.000056  -0.000126  -0.001075
     9  H    0.002109  -0.016318   0.370995  -0.000057  -0.000121  -0.001077
               7          8          9
     1  C    0.008555   0.002124   0.002109
     2  C   -0.033107  -0.016379  -0.016318
     3  C    0.356643   0.371173   0.370995
     4  O    0.000107  -0.000056  -0.000057
     5  H    0.002028  -0.000126  -0.000121
     6  O    0.003092  -0.001075  -0.001077
     7  H    0.538070  -0.023888  -0.023951
     8  H   -0.023888   0.465569  -0.014668
     9  H   -0.023951  -0.014668   0.465886
 Mulliken charges:
               1
     1  C    0.165992
     2  C    0.395150
     3  C   -0.586151
     4  O   -0.333517
     5  H    0.143109
     6  O   -0.391559
     7  H    0.172450
     8  H    0.217325
     9  H    0.217200
 Sum of Mulliken charges =  -0.00000
 Mulliken charges with hydrogens summed into heavy atoms:
               1
     1  C    0.309101
     2  C    0.395150
     3  C    0.020825
     4  O   -0.333517
     6  O   -0.391559
 Electronic spatial extent (au):  <R**2>=            395.4418
 Charge=              0.0000 electrons
 Dipole moment (field-independent basis, Debye):
    X=             -2.8201    Y=             -3.1590    Z=             -0.0030  Tot=              4.2346
 Quadrupole moment (field-independent basis, Debye-Ang):
   XX=            -30.9754   YY=            -30.5433   ZZ=            -26.8475
   XY=              0.3059   XZ=             -0.0118   YZ=             -0.0009
 Traceless Quadrupole moment (field-independent basis, Debye-Ang):
   XX=             -1.5200   YY=             -1.0879   ZZ=              2.6079
   XY=              0.3059   XZ=             -0.0118   YZ=             -0.0009
 Octapole moment (field-independent basis, Debye-Ang**2):
  XXX=            -10.7320  YYY=             -3.2237  ZZZ=              0.0210  XYY=              3.4721
  XXY=              1.1694  XXZ=             -0.0110  XZZ=              0.8434  YZZ=              1.8706
  YYZ=             -0.0041  XYZ=              0.0143
 Hexadecapole moment (field-independent basis, Debye-Ang**3):
 XXXX=           -326.1008 YYYY=           -133.8952 ZZZZ=            -28.8989 XXXY=              0.1797
 XXXZ=             -0.0011 YYYX=             -1.2767 YYYZ=              0.0175 ZZZX=             -0.0247
 ZZZY=             -0.0197 XXYY=            -76.5677 XXZZ=            -51.9520 YYZZ=            -27.2513
 XXYZ=             -0.0394 YYXZ=              0.0082 ZZXY=             -1.1800
 N-N= 1.619785674927D+02 E-N=-9.487638230289D+02  KE= 2.648661049400D+02
 1\1\GINC-NODE91\SP\RwB97X\6-31G(d)\C3H4O2\YANZ\05-Jun-2019\0\\# 6-31g(
 d) wb97x\\tmpdir/M2_ref_125.gjf\\0,1\C,0,-1.760345,-1.783623,14.207761
 \C,0,-0.505932,-2.121388,14.700008\C,0,-0.324432,-3.35519,15.547891\O,
 0,-1.93928484,-0.79195311,13.5135845\H,0,-2.606307,-2.424887,14.446048
 \O,0,0.45219328,-1.37772815,14.42154077\H,0,-1.279484,-3.869605,15.684
 622\H,0,0.061389,-3.115527,16.547597\H,0,0.367026,-4.074128,15.088315\
 \Version=ES64L-G16RevA.03\State=1-A\HF=-267.0535024\RMSD=6.659e-09\Dip
 ole=-0.4337305,-1.3861154,0.8162208\Quadrupole=-1.0117258,0.0210304,0.
 9906954,-0.101008,-0.5813767,1.2434812\PG=C01 [X(C3H4O2)]\\@


 ...THE PHYSICISTS HAVE MADE THEIR UNIVERSE, AND IF YOU DO NOT LIKE
 IT, YOU MUST MAKE YOUR OWN.
                               -- E. R. HARRISON IN "COSMOLOGY" (1980)
 Job cpu time:       0 days  0 hours  0 minutes 26.2 seconds.
 Elapsed time:       0 days  0 hours  0 minutes 13.3 seconds.
 File lengths (MBytes):  RWF=      6 Int=      0 D2E=      0 Chk=      2 Scr=      1
 Normal termination of Gaussian 16 at Wed Jun  5 16:58:10 2019.
