 Entering Gaussian System, Link 0=g16
 Initial command:
 /share/apps/gaussian/g16/l1.exe "/tmp/55477.mgr/Gau-319595.inp" -scrdir="/tmp/55477.mgr/"
 Entering Link 1 = /share/apps/gaussian/g16/l1.exe PID=    319596.
  
 Copyright (c) 1988,1990,1992,1993,1995,1998,2003,2009,2016,
            Gaussian, Inc.  All Rights Reserved.
  
 This is part of the Gaussian(R) 16 program.  It is based on
 the Gaussian(R) 09 system (copyright 2009, Gaussian, Inc.),
 the Gaussian(R) 03 system (copyright 2003, Gaussian, Inc.),
 the Gaussian(R) 98 system (copyright 1998, Gaussian, Inc.),
 the Gaussian(R) 94 system (copyright 1995, Gaussian, Inc.),
 the Gaussian 92(TM) system (copyright 1992, Gaussian, Inc.),
 the Gaussian 90(TM) system (copyright 1990, Gaussian, Inc.),
 the Gaussian 88(TM) system (copyright 1988, Gaussian, Inc.),
 the Gaussian 86(TM) system (copyright 1986, Carnegie Mellon
 University), and the Gaussian 82(TM) system (copyright 1983,
 Carnegie Mellon University). Gaussian is a federally registered
 trademark of Gaussian, Inc.
  
 This software contains proprietary and confidential information,
 including trade secrets, belonging to Gaussian, Inc.
  
 This software is provided under written license and may be
 used, copied, transmitted, or stored only in accord with that
 written license.
  
 The following legend is applicable only to US Government
 contracts under FAR:
  
                    RESTRICTED RIGHTS LEGEND
  
 Use, reproduction and disclosure by the US Government is
 subject to restrictions as set forth in subparagraphs (a)
 and (c) of the Commercial Computer Software - Restricted
 Rights clause in FAR 52.227-19.
  
 Gaussian, Inc.
 340 Quinnipiac St., Bldg. 40, Wallingford CT 06492
  
  
 ---------------------------------------------------------------
 Warning -- This program may not be used in any manner that
 competes with the business of Gaussian, Inc. or will provide
 assistance to any competitor of Gaussian, Inc.  The licensee
 of this program is prohibited from giving any competitor of
 Gaussian, Inc. access to this program.  By using this program,
 the user acknowledges that Gaussian, Inc. is engaged in the
 business of creating and licensing software in the field of
 computational chemistry and represents and warrants to the
 licensee that it is not a competitor of Gaussian, Inc. and that
 it will not use this program in any manner prohibited above.
 ---------------------------------------------------------------
  

 Cite this work as:
 Gaussian 16, Revision A.03,
 M. J. Frisch, G. W. Trucks, H. B. Schlegel, G. E. Scuseria, 
 M. A. Robb, J. R. Cheeseman, G. Scalmani, V. Barone, 
 G. A. Petersson, H. Nakatsuji, X. Li, M. Caricato, A. V. Marenich, 
 J. Bloino, B. G. Janesko, R. Gomperts, B. Mennucci, H. P. Hratchian, 
 J. V. Ortiz, A. F. Izmaylov, J. L. Sonnenberg, D. Williams-Young, 
 F. Ding, F. Lipparini, F. Egidi, J. Goings, B. Peng, A. Petrone, 
 T. Henderson, D. Ranasinghe, V. G. Zakrzewski, J. Gao, N. Rega, 
 G. Zheng, W. Liang, M. Hada, M. Ehara, K. Toyota, R. Fukuda, 
 J. Hasegawa, M. Ishida, T. Nakajima, Y. Honda, O. Kitao, H. Nakai, 
 T. Vreven, K. Throssell, J. A. Montgomery, Jr., J. E. Peralta, 
 F. Ogliaro, M. J. Bearpark, J. J. Heyd, E. N. Brothers, K. N. Kudin, 
 V. N. Staroverov, T. A. Keith, R. Kobayashi, J. Normand, 
 K. Raghavachari, A. P. Rendell, J. C. Burant, S. S. Iyengar, 
 J. Tomasi, M. Cossi, J. M. Millam, M. Klene, C. Adamo, R. Cammi, 
 J. W. Ochterski, R. L. Martin, K. Morokuma, O. Farkas, 
 J. B. Foresman, and D. J. Fox, Gaussian, Inc., Wallingford CT, 2016.
 
 ******************************************
 Gaussian 16:  ES64L-G16RevA.03 25-Dec-2016
                 5-Jun-2019 
 ******************************************
 %nprocshared=2
 Will use up to    2 processors via shared memory.
 %mem=2GB
 ----------------
 # 6-31g(d) wb97x
 ----------------
 1/38=1,172=1/1;
 2/12=2,17=6,18=5,40=1/2;
 3/5=1,6=6,7=1,11=2,25=1,30=1,74=-57/1,2,3;
 4//1;
 5/5=2,38=5/2;
 6/7=2,8=2,9=2,10=2,28=1/1;
 99/5=1,9=1/99;
 ---------------------
 tmpdir/M2_ref_181.gjf
 ---------------------
 Symbolic Z-matrix:
 Charge =  0 Multiplicity = 1
 C                     3.78847   2.25713   12.49561 
 C                     3.98992   3.46811   11.85055 
 H                     3.29588   3.80352   11.08543 
 O                     4.58766   1.90734   13.36281 
 H                     2.93967   1.63119   12.24038 
 O                     4.96035   4.14784   12.16741 
 
                          Input orientation:                          
 ---------------------------------------------------------------------
 Center     Atomic      Atomic             Coordinates (Angstroms)
 Number     Number       Type             X           Y           Z
 ---------------------------------------------------------------------
      1          6           0        3.788473    2.257129   12.495609
      2          6           0        3.989922    3.468111   11.850547
      3          1           0        3.295884    3.803524   11.085428
      4          8           0        4.587662    1.907336   13.362805
      5          1           0        2.939670    1.631186   12.240375
      6          8           0        4.960354    4.147838   12.167405
 ---------------------------------------------------------------------
                    Distance matrix (angstroms):
                    1          2          3          4          5
     1  C    0.000000
     2  C    1.386782   0.000000
     3  H    2.150021   1.086093   0.000000
     4  O    1.230076   2.253938   3.232749   0.000000
     5  H    1.085088   2.151578   2.485929   2.012955   0.000000
     6  O    2.248511   1.226444   2.014866   2.566657   3.228316
                    6
     6  O    0.000000
 Stoichiometry    C2H2O2
 Framework group  C1[X(C2H2O2)]
 Deg. of freedom    12
 Full point group                 C1      NOp   1
 Largest Abelian subgroup         C1      NOp   1
 Largest concise Abelian subgroup C1      NOp   1
                         Standard orientation:                         
 ---------------------------------------------------------------------
 Center     Atomic      Atomic             Coordinates (Angstroms)
 Number     Number       Type             X           Y           Z
 ---------------------------------------------------------------------
      1          6           0       -0.690993    0.513229   -0.000812
      2          6           0        0.695787    0.511067   -0.000485
      3          1           0        1.245217    1.447923    0.004562
      4          8           0       -1.285407   -0.563692    0.000592
      5          1           0       -1.240707    1.448766   -0.000398
      6          8           0        1.281248   -0.566616   -0.000139
 ---------------------------------------------------------------------
 Rotational constants (GHZ):          24.5339810           7.5050685           5.7470293
 Standard basis: 6-31G(d) (6D, 7F)
 There are    64 symmetry adapted cartesian basis functions of A   symmetry.
 There are    64 symmetry adapted basis functions of A   symmetry.
    64 basis functions,   120 primitive gaussians,    64 cartesian basis functions
    15 alpha electrons       15 beta electrons
       nuclear repulsion energy       106.6982835436 Hartrees.
 NAtoms=    6 NActive=    6 NUniq=    6 SFac= 1.00D+00 NAtFMM=   60 NAOKFM=F Big=F
 Integral buffers will be    131072 words long.
 Raffenetti 2 integral format.
 Two-electron integral symmetry is turned on.
 One-electron integrals computed using PRISM.
 NBasis=    64 RedAO= T EigKep=  2.62D-03  NBF=    64
 NBsUse=    64 1.00D-06 EigRej= -1.00D+00 NBFU=    64
 ExpMin= 1.61D-01 ExpMax= 5.48D+03 ExpMxC= 8.25D+02 IAcc=3 IRadAn=         5 AccDes= 0.00D+00
 Harris functional with IExCor= 4538 and IRadAn=       5 diagonalized for initial guess.
 HarFok:  IExCor= 4538 AccDes= 0.00D+00 IRadAn=         5 IDoV= 1 UseB2=F ITyADJ=14
 ICtDFT=  3500011 ScaDFX=  1.000000  1.000000  1.000000  1.000000
 FoFCou: FMM=F IPFlag=           0 FMFlag=      100000 FMFlg1=           0
         NFxFlg=           0 DoJE=T BraDBF=F KetDBF=T FulRan=T
         wScrn=  0.000000 ICntrl=       500 IOpCl=  0 I1Cent=   200000004 NGrid=           0
         NMat0=    1 NMatS0=      1 NMatT0=    0 NMatD0=    1 NMtDS0=    0 NMtDT0=    0
 Petite list used in FoFCou.
 Keep R1 ints in memory in canonical form, NReq=6104720.
 Requested convergence on RMS density matrix=1.00D-08 within 128 cycles.
 Requested convergence on MAX density matrix=1.00D-06.
 Requested convergence on             energy=1.00D-06.
 No special actions if energy rises.
 Integral accuracy reduced to 1.0D-05 until final iterations.
 Initial convergence to 1.0D-05 achieved.  Increase integral accuracy.
 SCF Done:  E(RwB97X) =  -227.736194836     A.U. after   14 cycles
            NFock= 14  Conv=0.73D-08     -V/T= 2.0077

 **********************************************************************

            Population analysis using the SCF density.

 **********************************************************************

 Orbital symmetries:
       Occupied  (A) (A) (A) (A) (A) (A) (A) (A) (A) (A) (A) (A)
                 (A) (A) (A)
       Virtual   (A) (A) (A) (A) (A) (A) (A) (A) (A) (A) (A) (A)
                 (A) (A) (A) (A) (A) (A) (A) (A) (A) (A) (A) (A)
                 (A) (A) (A) (A) (A) (A) (A) (A) (A) (A) (A) (A)
                 (A) (A) (A) (A) (A) (A) (A) (A) (A) (A) (A) (A)
                 (A)
 The electronic state is 1-A.
 Alpha  occ. eigenvalues --  -19.25287 -19.25268 -10.37872 -10.37819  -1.21730
 Alpha  occ. eigenvalues --   -1.17240  -0.87815  -0.69280  -0.67215  -0.58058
 Alpha  occ. eigenvalues --   -0.56345  -0.55096  -0.47654  -0.40719  -0.38258
 Alpha virt. eigenvalues --   -0.03568   0.14347   0.20784   0.23858   0.27279
 Alpha virt. eigenvalues --    0.41384   0.49500   0.58886   0.61173   0.67372
 Alpha virt. eigenvalues --    0.69821   0.77702   0.78362   0.86430   0.92822
 Alpha virt. eigenvalues --    0.94530   0.95624   1.03488   1.07151   1.10228
 Alpha virt. eigenvalues --    1.11152   1.23515   1.26121   1.37627   1.40129
 Alpha virt. eigenvalues --    1.51687   1.65794   1.73002   1.77976   1.84339
 Alpha virt. eigenvalues --    1.87429   1.96936   1.99955   2.13275   2.13683
 Alpha virt. eigenvalues --    2.18070   2.37493   2.45145   2.51960   2.60932
 Alpha virt. eigenvalues --    2.76083   2.78281   2.97008   3.03242   3.25161
 Alpha virt. eigenvalues --    3.74178   4.14365   4.16522   4.45066
          Condensed to atoms (all electrons):
               1          2          3          4          5          6
     1  C    4.867360   0.226335  -0.090128   0.541482   0.356481  -0.077159
     2  C    0.226335   4.862717   0.356392  -0.076176  -0.089710   0.543769
     3  H   -0.090128   0.356392   0.610333   0.003630   0.009736  -0.046420
     4  O    0.541482  -0.076176   0.003630   7.916447  -0.046706  -0.004963
     5  H    0.356481  -0.089710   0.009736  -0.046706   0.609587   0.003700
     6  O   -0.077159   0.543769  -0.046420  -0.004963   0.003700   7.913034
 Mulliken charges:
               1
     1  C    0.175630
     2  C    0.176674
     3  H    0.156457
     4  O   -0.333713
     5  H    0.156913
     6  O   -0.331960
 Sum of Mulliken charges =  -0.00000
 Mulliken charges with hydrogens summed into heavy atoms:
               1
     1  C    0.332543
     2  C    0.333131
     4  O   -0.333713
     6  O   -0.331960
 Electronic spatial extent (au):  <R**2>=            220.1639
 Charge=             -0.0000 electrons
 Dipole moment (field-independent basis, Debye):
    X=              0.0202    Y=              3.7058    Z=             -0.0009  Tot=              3.7058
 Quadrupole moment (field-independent basis, Debye-Ang):
   XX=            -25.2795   YY=            -21.1179   ZZ=            -20.7916
   XY=              0.0040   XZ=              0.0038   YZ=              0.0015
 Traceless Quadrupole moment (field-independent basis, Debye-Ang):
   XX=             -2.8832   YY=              1.2784   ZZ=              1.6048
   XY=              0.0040   XZ=              0.0038   YZ=              0.0015
 Octapole moment (field-independent basis, Debye-Ang**2):
  XXX=              0.0519  YYY=             -0.4731  ZZZ=              0.0013  XYY=             -0.0083
  XXY=              4.1086  XXZ=             -0.0021  XZZ=              0.0054  YZZ=             -1.3586
  YYZ=              0.0064  XYZ=              0.0026
 Hexadecapole moment (field-independent basis, Debye-Ang**3):
 XXXX=           -176.6338 YYYY=            -69.9166 ZZZZ=            -16.5404 XXXY=              0.0045
 XXXZ=              0.0035 YYYX=             -0.0151 YYYZ=              0.0065 ZZZX=             -0.0035
 ZZZY=             -0.0025 XXYY=            -37.7028 XXZZ=            -29.5360 YYZZ=            -14.7041
 XXYZ=              0.0086 YYXZ=              0.0085 ZZXY=             -0.0031
 N-N= 1.066982835436D+02 E-N=-7.475832662701D+02  KE= 2.260050364580D+02
 1\1\GINC-NODE91\SP\RwB97X\6-31G(d)\C2H2O2\YANZ\05-Jun-2019\0\\# 6-31g(
 d) wb97x\\tmpdir/M2_ref_181.gjf\\0,1\C,0,3.788473,2.257129,12.495609\C
 ,0,3.989922,3.468111,11.850547\H,0,3.295884,3.803524,11.085428\O,0,4.5
 8766231,1.90733639,13.36280529\H,0,2.93967,1.631186,12.240375\O,0,4.96
 035376,4.14783782,12.16740508\\Version=ES64L-G16RevA.03\State=1-A\HF=-
 227.7361948\RMSD=7.304e-09\Dipole=-1.1976333,-0.2212261,-0.8015348\Qua
 drupole=0.9595291,-1.3537672,0.3942381,-0.4546353,0.1166197,1.3364768\
 PG=C01 [X(C2H2O2)]\\@


 I KNOW YOU BELIEVE YOU UNDERSTAND WHAT YOU THINK I SAID,
 BUT I AM NOT SURE YOU REALIZE THAT WHAT YOU HEARD IS NOT WHAT I MEANT.
 Job cpu time:       0 days  0 hours  0 minutes 13.4 seconds.
 Elapsed time:       0 days  0 hours  0 minutes  6.8 seconds.
 File lengths (MBytes):  RWF=      6 Int=      0 D2E=      0 Chk=      1 Scr=      1
 Normal termination of Gaussian 16 at Wed Jun  5 16:58:33 2019.
