 Entering Gaussian System, Link 0=g16
 Initial command:
 /share/apps/gaussian/g16/l1.exe "/tmp/55477.mgr/Gau-319915.inp" -scrdir="/tmp/55477.mgr/"
 Entering Link 1 = /share/apps/gaussian/g16/l1.exe PID=    319916.
  
 Copyright (c) 1988,1990,1992,1993,1995,1998,2003,2009,2016,
            Gaussian, Inc.  All Rights Reserved.
  
 This is part of the Gaussian(R) 16 program.  It is based on
 the Gaussian(R) 09 system (copyright 2009, Gaussian, Inc.),
 the Gaussian(R) 03 system (copyright 2003, Gaussian, Inc.),
 the Gaussian(R) 98 system (copyright 1998, Gaussian, Inc.),
 the Gaussian(R) 94 system (copyright 1995, Gaussian, Inc.),
 the Gaussian 92(TM) system (copyright 1992, Gaussian, Inc.),
 the Gaussian 90(TM) system (copyright 1990, Gaussian, Inc.),
 the Gaussian 88(TM) system (copyright 1988, Gaussian, Inc.),
 the Gaussian 86(TM) system (copyright 1986, Carnegie Mellon
 University), and the Gaussian 82(TM) system (copyright 1983,
 Carnegie Mellon University). Gaussian is a federally registered
 trademark of Gaussian, Inc.
  
 This software contains proprietary and confidential information,
 including trade secrets, belonging to Gaussian, Inc.
  
 This software is provided under written license and may be
 used, copied, transmitted, or stored only in accord with that
 written license.
  
 The following legend is applicable only to US Government
 contracts under FAR:
  
                    RESTRICTED RIGHTS LEGEND
  
 Use, reproduction and disclosure by the US Government is
 subject to restrictions as set forth in subparagraphs (a)
 and (c) of the Commercial Computer Software - Restricted
 Rights clause in FAR 52.227-19.
  
 Gaussian, Inc.
 340 Quinnipiac St., Bldg. 40, Wallingford CT 06492
  
  
 ---------------------------------------------------------------
 Warning -- This program may not be used in any manner that
 competes with the business of Gaussian, Inc. or will provide
 assistance to any competitor of Gaussian, Inc.  The licensee
 of this program is prohibited from giving any competitor of
 Gaussian, Inc. access to this program.  By using this program,
 the user acknowledges that Gaussian, Inc. is engaged in the
 business of creating and licensing software in the field of
 computational chemistry and represents and warrants to the
 licensee that it is not a competitor of Gaussian, Inc. and that
 it will not use this program in any manner prohibited above.
 ---------------------------------------------------------------
  

 Cite this work as:
 Gaussian 16, Revision A.03,
 M. J. Frisch, G. W. Trucks, H. B. Schlegel, G. E. Scuseria, 
 M. A. Robb, J. R. Cheeseman, G. Scalmani, V. Barone, 
 G. A. Petersson, H. Nakatsuji, X. Li, M. Caricato, A. V. Marenich, 
 J. Bloino, B. G. Janesko, R. Gomperts, B. Mennucci, H. P. Hratchian, 
 J. V. Ortiz, A. F. Izmaylov, J. L. Sonnenberg, D. Williams-Young, 
 F. Ding, F. Lipparini, F. Egidi, J. Goings, B. Peng, A. Petrone, 
 T. Henderson, D. Ranasinghe, V. G. Zakrzewski, J. Gao, N. Rega, 
 G. Zheng, W. Liang, M. Hada, M. Ehara, K. Toyota, R. Fukuda, 
 J. Hasegawa, M. Ishida, T. Nakajima, Y. Honda, O. Kitao, H. Nakai, 
 T. Vreven, K. Throssell, J. A. Montgomery, Jr., J. E. Peralta, 
 F. Ogliaro, M. J. Bearpark, J. J. Heyd, E. N. Brothers, K. N. Kudin, 
 V. N. Staroverov, T. A. Keith, R. Kobayashi, J. Normand, 
 K. Raghavachari, A. P. Rendell, J. C. Burant, S. S. Iyengar, 
 J. Tomasi, M. Cossi, J. M. Millam, M. Klene, C. Adamo, R. Cammi, 
 J. W. Ochterski, R. L. Martin, K. Morokuma, O. Farkas, 
 J. B. Foresman, and D. J. Fox, Gaussian, Inc., Wallingford CT, 2016.
 
 ******************************************
 Gaussian 16:  ES64L-G16RevA.03 25-Dec-2016
                 5-Jun-2019 
 ******************************************
 %nprocshared=2
 Will use up to    2 processors via shared memory.
 %mem=2GB
 ----------------
 # 6-31g(d) wb97x
 ----------------
 1/38=1,172=1/1;
 2/12=2,17=6,18=5,40=1/2;
 3/5=1,6=6,7=1,11=2,25=1,30=1,74=-57/1,2,3;
 4//1;
 5/5=2,38=5/2;
 6/7=2,8=2,9=2,10=2,28=1/1;
 99/5=1,9=1/99;
 ---------------------
 tmpdir/M2_ref_179.gjf
 ---------------------
 Symbolic Z-matrix:
 Charge =  0 Multiplicity = 1
 C                     3.98992   3.46811   11.85055 
 H                     3.29588   3.80352   11.08543 
 H                     3.8441    2.5915    12.3175 
 O                     4.96035   4.14784   12.16741 
 
                          Input orientation:                          
 ---------------------------------------------------------------------
 Center     Atomic      Atomic             Coordinates (Angstroms)
 Number     Number       Type             X           Y           Z
 ---------------------------------------------------------------------
      1          6           0        3.989922    3.468111   11.850547
      2          1           0        3.295884    3.803524   11.085428
      3          1           0        3.844096    2.591498   12.317498
      4          8           0        4.960354    4.147838   12.167405
 ---------------------------------------------------------------------
                    Distance matrix (angstroms):
                    1          2          3          4
     1  C    0.000000
     2  H    1.086093   0.000000
     3  H    1.003872   1.813158   0.000000
     4  O    1.226444   2.014866   1.921133   0.000000
 Stoichiometry    CH2O
 Framework group  C1[X(CH2O)]
 Deg. of freedom     6
 Full point group                 C1      NOp   1
 Largest Abelian subgroup         C1      NOp   1
 Largest concise Abelian subgroup C1      NOp   1
                         Standard orientation:                         
 ---------------------------------------------------------------------
 Center     Atomic      Atomic             Coordinates (Angstroms)
 Number     Number       Type             X           Y           Z
 ---------------------------------------------------------------------
      1          6           0        0.547951    0.014192   -0.000684
      2          1           0        1.127696   -0.904224    0.001403
      3          1           0        1.010511    0.905142    0.001480
      4          8           0       -0.678239   -0.010759    0.000153
 ---------------------------------------------------------------------
 Rotational constants (GHZ):         305.7260131          38.5108089          34.2025310
 Standard basis: 6-31G(d) (6D, 7F)
 There are    34 symmetry adapted cartesian basis functions of A   symmetry.
 There are    34 symmetry adapted basis functions of A   symmetry.
    34 basis functions,    64 primitive gaussians,    34 cartesian basis functions
     8 alpha electrons        8 beta electrons
       nuclear repulsion energy        31.3934375991 Hartrees.
 NAtoms=    4 NActive=    4 NUniq=    4 SFac= 1.00D+00 NAtFMM=   60 NAOKFM=F Big=F
 Integral buffers will be    131072 words long.
 Raffenetti 2 integral format.
 Two-electron integral symmetry is turned on.
 One-electron integrals computed using PRISM.
 NBasis=    34 RedAO= T EigKep=  9.16D-03  NBF=    34
 NBsUse=    34 1.00D-06 EigRej= -1.00D+00 NBFU=    34
 ExpMin= 1.61D-01 ExpMax= 5.48D+03 ExpMxC= 8.25D+02 IAcc=3 IRadAn=         5 AccDes= 0.00D+00
 Harris functional with IExCor= 4538 and IRadAn=       5 diagonalized for initial guess.
 HarFok:  IExCor= 4538 AccDes= 0.00D+00 IRadAn=         5 IDoV= 1 UseB2=F ITyADJ=14
 ICtDFT=  3500011 ScaDFX=  1.000000  1.000000  1.000000  1.000000
 FoFCou: FMM=F IPFlag=           0 FMFlag=      100000 FMFlg1=           0
         NFxFlg=           0 DoJE=T BraDBF=F KetDBF=T FulRan=T
         wScrn=  0.000000 ICntrl=       500 IOpCl=  0 I1Cent=   200000004 NGrid=           0
         NMat0=    1 NMatS0=      1 NMatT0=    0 NMatD0=    1 NMtDS0=    0 NMtDT0=    0
 Petite list used in FoFCou.
 Keep R1 ints in memory in canonical form, NReq=2080152.
 Requested convergence on RMS density matrix=1.00D-08 within 128 cycles.
 Requested convergence on MAX density matrix=1.00D-06.
 Requested convergence on             energy=1.00D-06.
 No special actions if energy rises.
 Integral accuracy reduced to 1.0D-05 until final iterations.
 Initial convergence to 1.0D-05 achieved.  Increase integral accuracy.
 SCF Done:  E(RwB97X) =  -114.457800535     A.U. after   14 cycles
            NFock= 14  Conv=0.26D-08     -V/T= 2.0076

 **********************************************************************

            Population analysis using the SCF density.

 **********************************************************************

 Orbital symmetries:
       Occupied  (A) (A) (A) (A) (A) (A) (A) (A)
       Virtual   (A) (A) (A) (A) (A) (A) (A) (A) (A) (A) (A) (A)
                 (A) (A) (A) (A) (A) (A) (A) (A) (A) (A) (A) (A)
                 (A) (A)
 The electronic state is 1-A.
 Alpha  occ. eigenvalues --  -19.22997 -10.35860  -1.17066  -0.77321  -0.62246
 Alpha  occ. eigenvalues --   -0.54975  -0.49512  -0.36874
 Alpha virt. eigenvalues --    0.05591   0.21888   0.29661   0.31766   0.62171
 Alpha virt. eigenvalues --    0.70754   0.74296   0.78545   0.96144   0.98178
 Alpha virt. eigenvalues --    1.06432   1.07914   1.17822   1.48372   1.60972
 Alpha virt. eigenvalues --    1.61383   1.82545   2.01140   2.03815   2.26395
 Alpha virt. eigenvalues --    2.41349   2.63582   2.75728   3.01693   3.79883
 Alpha virt. eigenvalues --    4.21411
          Condensed to atoms (all electrons):
               1          2          3          4
     1  C    4.687218   0.353814   0.360369   0.542934
     2  H    0.353814   0.645493  -0.083257  -0.055349
     3  H    0.360369  -0.083257   0.625088  -0.058114
     4  O    0.542934  -0.055349  -0.058114   7.921407
 Mulliken charges:
               1
     1  C    0.055665
     2  H    0.139300
     3  H    0.155914
     4  O   -0.350878
 Sum of Mulliken charges =   0.00000
 Mulliken charges with hydrogens summed into heavy atoms:
               1
     1  C    0.350878
     4  O   -0.350878
 Electronic spatial extent (au):  <R**2>=             59.1513
 Charge=              0.0000 electrons
 Dipole moment (field-independent basis, Debye):
    X=              2.4504    Y=              0.1104    Z=              0.0003  Tot=              2.4528
 Quadrupole moment (field-independent basis, Debye-Ang):
   XX=            -11.7672   YY=            -11.2436   ZZ=            -11.3350
   XY=              0.0068   XZ=              0.0012   YZ=             -0.0000
 Traceless Quadrupole moment (field-independent basis, Debye-Ang):
   XX=             -0.3186   YY=              0.2050   ZZ=              0.1136
   XY=              0.0068   XZ=              0.0012   YZ=             -0.0000
 Octapole moment (field-independent basis, Debye-Ang**2):
  XXX=             -0.5145  YYY=              0.2622  ZZZ=              0.0015  XYY=              0.3649
  XXY=              0.0164  XXZ=              0.0029  XZZ=             -0.6935  YZZ=              0.0851
  YYZ=              0.0029  XYZ=             -0.0001
 Hexadecapole moment (field-independent basis, Debye-Ang**3):
 XXXX=            -42.9915 YYYY=            -16.1728 ZZZZ=             -9.1014 XXXY=              0.1019
 XXXZ=              0.0034 YYYX=              0.1848 YYYZ=              0.0003 ZZZX=             -0.0002
 ZZZY=              0.0002 XXYY=             -9.5538 XXZZ=             -8.6111 YYZZ=             -4.4343
 XXYZ=             -0.0003 YYXZ=              0.0027 ZZXY=              0.1021
 N-N= 3.139343759909D+01 E-N=-3.312680573806D+02  KE= 1.135923899590D+02
 1\1\GINC-NODE91\SP\RwB97X\6-31G(d)\C1H2O1\YANZ\05-Jun-2019\0\\# 6-31g(
 d) wb97x\\tmpdir/M2_ref_179.gjf\\0,1\C,0,3.989922,3.468111,11.850547\H
 ,0,3.295884,3.803524,11.085428\H,0,3.84409589,2.59149808,12.31749835\O
 ,0,4.96035376,4.14783782,12.16740508\\Version=ES64L-G16RevA.03\State=1
 -A\HF=-114.4578005\RMSD=2.634e-09\Dipole=-0.7573962,-0.5508514,-0.2327
 722\Quadrupole=-0.1165665,0.0280622,0.0885043,-0.1481161,-0.0615524,-0
 .0801123\PG=C01 [X(C1H2O1)]\\@


 FLOATING POINT NUMBERS ARE LIKE SANDPILES:
 EVERY TIME THAT YOU MOVE ONE, YOU LOSE A LITTLE SAND 
 AND YOU PICK UP A LITTLE DIRT.
 Job cpu time:       0 days  0 hours  0 minutes  6.3 seconds.
 Elapsed time:       0 days  0 hours  0 minutes  3.2 seconds.
 File lengths (MBytes):  RWF=      6 Int=      0 D2E=      0 Chk=      1 Scr=      1
 Normal termination of Gaussian 16 at Wed Jun  5 16:58:50 2019.
