 Entering Gaussian System, Link 0=g16
 Initial command:
 /share/apps/gaussian/g16/l1.exe "/tmp/55477.mgr/Gau-319406.inp" -scrdir="/tmp/55477.mgr/"
 Entering Link 1 = /share/apps/gaussian/g16/l1.exe PID=    319407.
  
 Copyright (c) 1988,1990,1992,1993,1995,1998,2003,2009,2016,
            Gaussian, Inc.  All Rights Reserved.
  
 This is part of the Gaussian(R) 16 program.  It is based on
 the Gaussian(R) 09 system (copyright 2009, Gaussian, Inc.),
 the Gaussian(R) 03 system (copyright 2003, Gaussian, Inc.),
 the Gaussian(R) 98 system (copyright 1998, Gaussian, Inc.),
 the Gaussian(R) 94 system (copyright 1995, Gaussian, Inc.),
 the Gaussian 92(TM) system (copyright 1992, Gaussian, Inc.),
 the Gaussian 90(TM) system (copyright 1990, Gaussian, Inc.),
 the Gaussian 88(TM) system (copyright 1988, Gaussian, Inc.),
 the Gaussian 86(TM) system (copyright 1986, Carnegie Mellon
 University), and the Gaussian 82(TM) system (copyright 1983,
 Carnegie Mellon University). Gaussian is a federally registered
 trademark of Gaussian, Inc.
  
 This software contains proprietary and confidential information,
 including trade secrets, belonging to Gaussian, Inc.
  
 This software is provided under written license and may be
 used, copied, transmitted, or stored only in accord with that
 written license.
  
 The following legend is applicable only to US Government
 contracts under FAR:
  
                    RESTRICTED RIGHTS LEGEND
  
 Use, reproduction and disclosure by the US Government is
 subject to restrictions as set forth in subparagraphs (a)
 and (c) of the Commercial Computer Software - Restricted
 Rights clause in FAR 52.227-19.
  
 Gaussian, Inc.
 340 Quinnipiac St., Bldg. 40, Wallingford CT 06492
  
  
 ---------------------------------------------------------------
 Warning -- This program may not be used in any manner that
 competes with the business of Gaussian, Inc. or will provide
 assistance to any competitor of Gaussian, Inc.  The licensee
 of this program is prohibited from giving any competitor of
 Gaussian, Inc. access to this program.  By using this program,
 the user acknowledges that Gaussian, Inc. is engaged in the
 business of creating and licensing software in the field of
 computational chemistry and represents and warrants to the
 licensee that it is not a competitor of Gaussian, Inc. and that
 it will not use this program in any manner prohibited above.
 ---------------------------------------------------------------
  

 Cite this work as:
 Gaussian 16, Revision A.03,
 M. J. Frisch, G. W. Trucks, H. B. Schlegel, G. E. Scuseria, 
 M. A. Robb, J. R. Cheeseman, G. Scalmani, V. Barone, 
 G. A. Petersson, H. Nakatsuji, X. Li, M. Caricato, A. V. Marenich, 
 J. Bloino, B. G. Janesko, R. Gomperts, B. Mennucci, H. P. Hratchian, 
 J. V. Ortiz, A. F. Izmaylov, J. L. Sonnenberg, D. Williams-Young, 
 F. Ding, F. Lipparini, F. Egidi, J. Goings, B. Peng, A. Petrone, 
 T. Henderson, D. Ranasinghe, V. G. Zakrzewski, J. Gao, N. Rega, 
 G. Zheng, W. Liang, M. Hada, M. Ehara, K. Toyota, R. Fukuda, 
 J. Hasegawa, M. Ishida, T. Nakajima, Y. Honda, O. Kitao, H. Nakai, 
 T. Vreven, K. Throssell, J. A. Montgomery, Jr., J. E. Peralta, 
 F. Ogliaro, M. J. Bearpark, J. J. Heyd, E. N. Brothers, K. N. Kudin, 
 V. N. Staroverov, T. A. Keith, R. Kobayashi, J. Normand, 
 K. Raghavachari, A. P. Rendell, J. C. Burant, S. S. Iyengar, 
 J. Tomasi, M. Cossi, J. M. Millam, M. Klene, C. Adamo, R. Cammi, 
 J. W. Ochterski, R. L. Martin, K. Morokuma, O. Farkas, 
 J. B. Foresman, and D. J. Fox, Gaussian, Inc., Wallingford CT, 2016.
 
 ******************************************
 Gaussian 16:  ES64L-G16RevA.03 25-Dec-2016
                 5-Jun-2019 
 ******************************************
 %nprocshared=2
 Will use up to    2 processors via shared memory.
 %mem=2GB
 ----------------
 # 6-31g(d) wb97x
 ----------------
 1/38=1,172=1/1;
 2/12=2,17=6,18=5,40=1/2;
 3/5=1,6=6,7=1,11=2,25=1,30=1,74=-57/1,2,3;
 4//1;
 5/5=2,38=5/2;
 6/7=2,8=2,9=2,10=2,28=1/1;
 99/5=1,9=1/99;
 ---------------------
 tmpdir/M2_ref_162.gjf
 ---------------------
 Symbolic Z-matrix:
 Charge =  0 Multiplicity = 1
 C                     5.23708  -1.28224   15.46829 
 C                     5.55769  -0.09244   14.82461 
 H                     6.57686   0.27435   14.79763 
 O                     4.06561  -1.76787   15.49637 
 H                     6.00505  -1.85937   15.9821 
 O                     4.63178   0.49643   14.27316 
 
                          Input orientation:                          
 ---------------------------------------------------------------------
 Center     Atomic      Atomic             Coordinates (Angstroms)
 Number     Number       Type             X           Y           Z
 ---------------------------------------------------------------------
      1          6           0        5.237079   -1.282241   15.468294
      2          6           0        5.557686   -0.092444   14.824609
      3          1           0        6.576856    0.274349   14.797633
      4          8           0        4.065609   -1.767867   15.496367
      5          1           0        6.005048   -1.859366   15.982097
      6          8           0        4.631778    0.496431   14.273162
 ---------------------------------------------------------------------
                    Distance matrix (angstroms):
                    1          2          3          4          5
     1  C    0.000000
     2  C    1.390229   0.000000
     3  H    2.160500   1.083500   0.000000
     4  O    1.268449   2.341921   3.311380   0.000000
     5  H    1.089423   2.159149   2.506523   2.001432   0.000000
     6  O    2.226748   1.228077   2.026750   2.635114   3.218091
                    6
     6  O    0.000000
 Stoichiometry    C2H2O2
 Framework group  C1[X(C2H2O2)]
 Deg. of freedom    12
 Full point group                 C1      NOp   1
 Largest Abelian subgroup         C1      NOp   1
 Largest concise Abelian subgroup C1      NOp   1
                         Standard orientation:                         
 ---------------------------------------------------------------------
 Center     Atomic      Atomic             Coordinates (Angstroms)
 Number     Number       Type             X           Y           Z
 ---------------------------------------------------------------------
      1          6           0       -0.649204    0.520248   -0.003882
      2          6           0        0.740949    0.505914   -0.001220
      3          1           0        1.311863    1.426483    0.022882
      4          8           0       -1.358865   -0.531081    0.003142
      5          1           0       -1.194211    1.463541   -0.006743
      6          8           0        1.275350   -0.599793   -0.001333
 ---------------------------------------------------------------------
 Rotational constants (GHZ):          24.4691345           7.1818166           5.5523241
 Standard basis: 6-31G(d) (6D, 7F)
 There are    64 symmetry adapted cartesian basis functions of A   symmetry.
 There are    64 symmetry adapted basis functions of A   symmetry.
    64 basis functions,   120 primitive gaussians,    64 cartesian basis functions
    15 alpha electrons       15 beta electrons
       nuclear repulsion energy       105.3103667990 Hartrees.
 NAtoms=    6 NActive=    6 NUniq=    6 SFac= 1.00D+00 NAtFMM=   60 NAOKFM=F Big=F
 Integral buffers will be    131072 words long.
 Raffenetti 2 integral format.
 Two-electron integral symmetry is turned on.
 One-electron integrals computed using PRISM.
 NBasis=    64 RedAO= T EigKep=  2.83D-03  NBF=    64
 NBsUse=    64 1.00D-06 EigRej= -1.00D+00 NBFU=    64
 ExpMin= 1.61D-01 ExpMax= 5.48D+03 ExpMxC= 8.25D+02 IAcc=3 IRadAn=         5 AccDes= 0.00D+00
 Harris functional with IExCor= 4538 and IRadAn=       5 diagonalized for initial guess.
 HarFok:  IExCor= 4538 AccDes= 0.00D+00 IRadAn=         5 IDoV= 1 UseB2=F ITyADJ=14
 ICtDFT=  3500011 ScaDFX=  1.000000  1.000000  1.000000  1.000000
 FoFCou: FMM=F IPFlag=           0 FMFlag=      100000 FMFlg1=           0
         NFxFlg=           0 DoJE=T BraDBF=F KetDBF=T FulRan=T
         wScrn=  0.000000 ICntrl=       500 IOpCl=  0 I1Cent=   200000004 NGrid=           0
         NMat0=    1 NMatS0=      1 NMatT0=    0 NMatD0=    1 NMtDS0=    0 NMtDT0=    0
 Petite list used in FoFCou.
 Keep R1 ints in memory in canonical form, NReq=6104720.
 Requested convergence on RMS density matrix=1.00D-08 within 128 cycles.
 Requested convergence on MAX density matrix=1.00D-06.
 Requested convergence on             energy=1.00D-06.
 No special actions if energy rises.
 Integral accuracy reduced to 1.0D-05 until final iterations.
 Initial convergence to 1.0D-05 achieved.  Increase integral accuracy.
 SCF Done:  E(RwB97X) =  -227.731835590     A.U. after   16 cycles
            NFock= 16  Conv=0.89D-08     -V/T= 2.0083

 **********************************************************************

            Population analysis using the SCF density.

 **********************************************************************

 Orbital symmetries:
       Occupied  (A) (A) (A) (A) (A) (A) (A) (A) (A) (A) (A) (A)
                 (A) (A) (A)
       Virtual   (A) (A) (A) (A) (A) (A) (A) (A) (A) (A) (A) (A)
                 (A) (A) (A) (A) (A) (A) (A) (A) (A) (A) (A) (A)
                 (A) (A) (A) (A) (A) (A) (A) (A) (A) (A) (A) (A)
                 (A) (A) (A) (A) (A) (A) (A) (A) (A) (A) (A) (A)
                 (A)
 The electronic state is 1-A.
 Alpha  occ. eigenvalues --  -19.25734 -19.25365 -10.38475 -10.38219  -1.21135
 Alpha  occ. eigenvalues --   -1.16091  -0.88096  -0.69698  -0.66839  -0.57965
 Alpha  occ. eigenvalues --   -0.55905  -0.54736  -0.47100  -0.40846  -0.38355
 Alpha virt. eigenvalues --   -0.04214   0.13669   0.20458   0.23651   0.26514
 Alpha virt. eigenvalues --    0.41412   0.48334   0.58923   0.60823   0.67590
 Alpha virt. eigenvalues --    0.68071   0.76230   0.77457   0.86383   0.92943
 Alpha virt. eigenvalues --    0.94442   0.96402   1.03667   1.07128   1.10564
 Alpha virt. eigenvalues --    1.11377   1.22219   1.24805   1.39103   1.40047
 Alpha virt. eigenvalues --    1.51301   1.64904   1.70118   1.78723   1.84543
 Alpha virt. eigenvalues --    1.86773   1.96525   1.96751   2.09402   2.13842
 Alpha virt. eigenvalues --    2.18273   2.34709   2.43060   2.50577   2.58185
 Alpha virt. eigenvalues --    2.74239   2.77225   2.94406   3.00617   3.22417
 Alpha virt. eigenvalues --    3.72754   4.11862   4.14424   4.44788
          Condensed to atoms (all electrons):
               1          2          3          4          5          6
     1  C    4.890371   0.218745  -0.084207   0.523016   0.356100  -0.078751
     2  C    0.218745   4.871214   0.358603  -0.064511  -0.088065   0.528785
     3  H   -0.084207   0.358603   0.586794   0.002446   0.008685  -0.042212
     4  O    0.523016  -0.064511   0.002446   7.943308  -0.051647  -0.003298
     5  H    0.356100  -0.088065   0.008685  -0.051647   0.614581   0.004447
     6  O   -0.078751   0.528785  -0.042212  -0.003298   0.004447   7.917460
 Mulliken charges:
               1
     1  C    0.174727
     2  C    0.175229
     3  H    0.169891
     4  O   -0.349314
     5  H    0.155899
     6  O   -0.326432
 Sum of Mulliken charges =  -0.00000
 Mulliken charges with hydrogens summed into heavy atoms:
               1
     1  C    0.330626
     2  C    0.345120
     4  O   -0.349314
     6  O   -0.326432
 Electronic spatial extent (au):  <R**2>=            225.9326
 Charge=              0.0000 electrons
 Dipole moment (field-independent basis, Debye):
    X=              0.4455    Y=              3.7441    Z=             -0.0023  Tot=              3.7705
 Quadrupole moment (field-independent basis, Debye-Ang):
   XX=            -25.4492   YY=            -21.1016   ZZ=            -20.8946
   XY=              0.3291   XZ=              0.0246   YZ=              0.0081
 Traceless Quadrupole moment (field-independent basis, Debye-Ang):
   XX=             -2.9674   YY=              1.3802   ZZ=              1.5872
   XY=              0.3291   XZ=              0.0246   YZ=              0.0081
 Octapole moment (field-independent basis, Debye-Ang**2):
  XXX=              1.2206  YYY=             -0.2955  ZZZ=              0.0075  XYY=              0.1580
  XXY=              4.3549  XXZ=             -0.0023  XZZ=              0.0771  YZZ=             -1.3613
  YYZ=              0.0289  XYZ=              0.0197
 Hexadecapole moment (field-independent basis, Debye-Ang**3):
 XXXX=           -183.6791 YYYY=            -69.8188 ZZZZ=            -16.7217 XXXY=              1.0168
 XXXZ=              0.0258 YYYX=              0.3365 YYYZ=              0.0335 ZZZX=             -0.0220
 ZZZY=             -0.0058 XXYY=            -38.4501 XXZZ=            -30.6115 YYZZ=            -14.7480
 XXYZ=              0.0424 YYXZ=              0.0544 ZZXY=              0.0128
 N-N= 1.053103667990D+02 E-N=-7.446877378240D+02  KE= 2.258538561183D+02
 1\1\GINC-NODE91\SP\RwB97X\6-31G(d)\C2H2O2\YANZ\05-Jun-2019\0\\# 6-31g(
 d) wb97x\\tmpdir/M2_ref_162.gjf\\0,1\C,0,5.237079,-1.282241,15.468294\
 C,0,5.557686,-0.092444,14.824609\H,0,6.576856,0.274349,14.797633\O,0,4
 .06560909,-1.76786717,15.49636713\H,0,6.005048,-1.859366,15.982097\O,0
 ,4.63177849,0.49643141,14.27316172\\Version=ES64L-G16RevA.03\State=1-A
 \HF=-227.7318356\RMSD=8.898e-09\Dipole=1.4463255,-0.0248782,0.328706\Q
 uadrupole=0.9606465,-1.3659663,0.4053198,-0.4879728,0.2316924,1.395804
 3\PG=C01 [X(C2H2O2)]\\@


 QUANTUM MECHANICS IS BOHRING -- M.S. GORDON
 Job cpu time:       0 days  0 hours  0 minutes 14.9 seconds.
 Elapsed time:       0 days  0 hours  0 minutes  7.6 seconds.
 File lengths (MBytes):  RWF=      6 Int=      0 D2E=      0 Chk=      1 Scr=      1
 Normal termination of Gaussian 16 at Wed Jun  5 16:58:25 2019.
