 Entering Gaussian System, Link 0=g16
 Initial command:
 /share/apps/gaussian/g16/l1.exe "/tmp/55477.mgr/Gau-319722.inp" -scrdir="/tmp/55477.mgr/"
 Entering Link 1 = /share/apps/gaussian/g16/l1.exe PID=    319723.
  
 Copyright (c) 1988,1990,1992,1993,1995,1998,2003,2009,2016,
            Gaussian, Inc.  All Rights Reserved.
  
 This is part of the Gaussian(R) 16 program.  It is based on
 the Gaussian(R) 09 system (copyright 2009, Gaussian, Inc.),
 the Gaussian(R) 03 system (copyright 2003, Gaussian, Inc.),
 the Gaussian(R) 98 system (copyright 1998, Gaussian, Inc.),
 the Gaussian(R) 94 system (copyright 1995, Gaussian, Inc.),
 the Gaussian 92(TM) system (copyright 1992, Gaussian, Inc.),
 the Gaussian 90(TM) system (copyright 1990, Gaussian, Inc.),
 the Gaussian 88(TM) system (copyright 1988, Gaussian, Inc.),
 the Gaussian 86(TM) system (copyright 1986, Carnegie Mellon
 University), and the Gaussian 82(TM) system (copyright 1983,
 Carnegie Mellon University). Gaussian is a federally registered
 trademark of Gaussian, Inc.
  
 This software contains proprietary and confidential information,
 including trade secrets, belonging to Gaussian, Inc.
  
 This software is provided under written license and may be
 used, copied, transmitted, or stored only in accord with that
 written license.
  
 The following legend is applicable only to US Government
 contracts under FAR:
  
                    RESTRICTED RIGHTS LEGEND
  
 Use, reproduction and disclosure by the US Government is
 subject to restrictions as set forth in subparagraphs (a)
 and (c) of the Commercial Computer Software - Restricted
 Rights clause in FAR 52.227-19.
  
 Gaussian, Inc.
 340 Quinnipiac St., Bldg. 40, Wallingford CT 06492
  
  
 ---------------------------------------------------------------
 Warning -- This program may not be used in any manner that
 competes with the business of Gaussian, Inc. or will provide
 assistance to any competitor of Gaussian, Inc.  The licensee
 of this program is prohibited from giving any competitor of
 Gaussian, Inc. access to this program.  By using this program,
 the user acknowledges that Gaussian, Inc. is engaged in the
 business of creating and licensing software in the field of
 computational chemistry and represents and warrants to the
 licensee that it is not a competitor of Gaussian, Inc. and that
 it will not use this program in any manner prohibited above.
 ---------------------------------------------------------------
  

 Cite this work as:
 Gaussian 16, Revision A.03,
 M. J. Frisch, G. W. Trucks, H. B. Schlegel, G. E. Scuseria, 
 M. A. Robb, J. R. Cheeseman, G. Scalmani, V. Barone, 
 G. A. Petersson, H. Nakatsuji, X. Li, M. Caricato, A. V. Marenich, 
 J. Bloino, B. G. Janesko, R. Gomperts, B. Mennucci, H. P. Hratchian, 
 J. V. Ortiz, A. F. Izmaylov, J. L. Sonnenberg, D. Williams-Young, 
 F. Ding, F. Lipparini, F. Egidi, J. Goings, B. Peng, A. Petrone, 
 T. Henderson, D. Ranasinghe, V. G. Zakrzewski, J. Gao, N. Rega, 
 G. Zheng, W. Liang, M. Hada, M. Ehara, K. Toyota, R. Fukuda, 
 J. Hasegawa, M. Ishida, T. Nakajima, Y. Honda, O. Kitao, H. Nakai, 
 T. Vreven, K. Throssell, J. A. Montgomery, Jr., J. E. Peralta, 
 F. Ogliaro, M. J. Bearpark, J. J. Heyd, E. N. Brothers, K. N. Kudin, 
 V. N. Staroverov, T. A. Keith, R. Kobayashi, J. Normand, 
 K. Raghavachari, A. P. Rendell, J. C. Burant, S. S. Iyengar, 
 J. Tomasi, M. Cossi, J. M. Millam, M. Klene, C. Adamo, R. Cammi, 
 J. W. Ochterski, R. L. Martin, K. Morokuma, O. Farkas, 
 J. B. Foresman, and D. J. Fox, Gaussian, Inc., Wallingford CT, 2016.
 
 ******************************************
 Gaussian 16:  ES64L-G16RevA.03 25-Dec-2016
                 5-Jun-2019 
 ******************************************
 %nprocshared=2
 Will use up to    2 processors via shared memory.
 %mem=2GB
 ----------------
 # 6-31g(d) wb97x
 ----------------
 1/38=1,172=1/1;
 2/12=2,17=6,18=5,40=1/2;
 3/5=1,6=6,7=1,11=2,25=1,30=1,74=-57/1,2,3;
 4//1;
 5/5=2,38=5/2;
 6/7=2,8=2,9=2,10=2,28=1/1;
 99/5=1,9=1/99;
 ---------------------
 tmpdir/M2_ref_190.gjf
 ---------------------
 Symbolic Z-matrix:
 Charge =  0 Multiplicity = 1
 C                     5.09066   4.23911   12.20995 
 N                     5.96521   3.88438   13.15447 
 C                     5.75709   2.72061   13.76777 
 O                     4.12023   3.55939   11.89309 
 H                     5.28206   5.19319   11.72053 
 H                     4.98824   2.09789   13.55892 
 H                     6.47025   2.4715    14.55324 
 
                          Input orientation:                          
 ---------------------------------------------------------------------
 Center     Atomic      Atomic             Coordinates (Angstroms)
 Number     Number       Type             X           Y           Z
 ---------------------------------------------------------------------
      1          6           0        5.090664    4.239112   12.209953
      2          7           0        5.965207    3.884381   13.154473
      3          6           0        5.757091    2.720608   13.767767
      4          8           0        4.120232    3.559385   11.893095
      5          1           0        5.282060    5.193192   11.720525
      6          1           0        4.988242    2.097891   13.558916
      7          1           0        6.470246    2.471497   14.553239
 ---------------------------------------------------------------------
                    Distance matrix (angstroms):
                    1          2          3          4          5
     1  C    0.000000
     2  N    1.335207   0.000000
     3  C    2.275250   1.331844   0.000000
     4  O    1.226444   2.258457   2.626261   0.000000
     5  H    1.089239   2.058126   3.245077   2.012200   0.000000
     6  H    2.532789   2.075953   1.011199   2.379993   3.612049
     7  H    3.243254   2.051305   1.089776   3.712470   4.104105
                    6          7
     6  H    0.000000
     7  H    1.823347   0.000000
 Stoichiometry    C2H3NO
 Framework group  C1[X(C2H3NO)]
 Deg. of freedom    15
 Full point group                 C1      NOp   1
 Largest Abelian subgroup         C1      NOp   1
 Largest concise Abelian subgroup C1      NOp   1
                         Standard orientation:                         
 ---------------------------------------------------------------------
 Center     Atomic      Atomic             Coordinates (Angstroms)
 Number     Number       Type             X           Y           Z
 ---------------------------------------------------------------------
      1          6           0       -0.733074    0.479448   -0.001203
      2          7           0        0.586926    0.680392   -0.000455
      3          6           0        1.365162   -0.400416   -0.003883
      4          8           0       -1.250831   -0.632343    0.002447
      5          1           0       -1.349571    1.377430   -0.000712
      6          1           0        1.018272   -1.350226   -0.011096
      7          1           0        2.436933   -0.205400    0.025937
 ---------------------------------------------------------------------
 Rotational constants (GHZ):          24.0009342           7.4595543           5.6909644
 Standard basis: 6-31G(d) (6D, 7F)
 There are    66 symmetry adapted cartesian basis functions of A   symmetry.
 There are    66 symmetry adapted basis functions of A   symmetry.
    66 basis functions,   124 primitive gaussians,    66 cartesian basis functions
    15 alpha electrons       15 beta electrons
       nuclear repulsion energy       108.3679221610 Hartrees.
 NAtoms=    7 NActive=    7 NUniq=    7 SFac= 1.00D+00 NAtFMM=   60 NAOKFM=F Big=F
 Integral buffers will be    131072 words long.
 Raffenetti 2 integral format.
 Two-electron integral symmetry is turned on.
 One-electron integrals computed using PRISM.
 NBasis=    66 RedAO= T EigKep=  4.80D-03  NBF=    66
 NBsUse=    66 1.00D-06 EigRej= -1.00D+00 NBFU=    66
 ExpMin= 1.61D-01 ExpMax= 5.48D+03 ExpMxC= 8.25D+02 IAcc=3 IRadAn=         5 AccDes= 0.00D+00
 Harris functional with IExCor= 4538 and IRadAn=       5 diagonalized for initial guess.
 HarFok:  IExCor= 4538 AccDes= 0.00D+00 IRadAn=         5 IDoV= 1 UseB2=F ITyADJ=14
 ICtDFT=  3500011 ScaDFX=  1.000000  1.000000  1.000000  1.000000
 FoFCou: FMM=F IPFlag=           0 FMFlag=      100000 FMFlg1=           0
         NFxFlg=           0 DoJE=T BraDBF=F KetDBF=T FulRan=T
         wScrn=  0.000000 ICntrl=       500 IOpCl=  0 I1Cent=   200000004 NGrid=           0
         NMat0=    1 NMatS0=      1 NMatT0=    0 NMatD0=    1 NMtDS0=    0 NMtDT0=    0
 Petite list used in FoFCou.
 Keep R1 ints in memory in canonical form, NReq=6667331.
 Requested convergence on RMS density matrix=1.00D-08 within 128 cycles.
 Requested convergence on MAX density matrix=1.00D-06.
 Requested convergence on             energy=1.00D-06.
 No special actions if energy rises.
 Integral accuracy reduced to 1.0D-05 until final iterations.
 Initial convergence to 1.0D-05 achieved.  Increase integral accuracy.
 SCF Done:  E(RwB97X) =  -207.876833852     A.U. after   17 cycles
            NFock= 17  Conv=0.31D-08     -V/T= 2.0082

 **********************************************************************

            Population analysis using the SCF density.

 **********************************************************************

 Orbital symmetries:
       Occupied  (A) (A) (A) (A) (A) (A) (A) (A) (A) (A) (A) (A)
                 (A) (A) (A)
       Virtual   (A) (A) (A) (A) (A) (A) (A) (A) (A) (A) (A) (A)
                 (A) (A) (A) (A) (A) (A) (A) (A) (A) (A) (A) (A)
                 (A) (A) (A) (A) (A) (A) (A) (A) (A) (A) (A) (A)
                 (A) (A) (A) (A) (A) (A) (A) (A) (A) (A) (A) (A)
                 (A) (A) (A)
 The electronic state is 1-A.
 Alpha  occ. eigenvalues --  -19.21504 -14.42964 -10.37739 -10.35439  -1.18277
 Alpha  occ. eigenvalues --   -1.05508  -0.84032  -0.69836  -0.64792  -0.57281
 Alpha  occ. eigenvalues --   -0.54746  -0.53833  -0.41768  -0.40434  -0.36731
 Alpha virt. eigenvalues --   -0.01098   0.15415   0.21900   0.24242   0.27959
 Alpha virt. eigenvalues --    0.33173   0.37811   0.46388   0.60080   0.63390
 Alpha virt. eigenvalues --    0.66711   0.68534   0.75038   0.77748   0.80363
 Alpha virt. eigenvalues --    0.90634   0.92399   0.94581   0.96634   0.98647
 Alpha virt. eigenvalues --    1.02914   1.07637   1.10466   1.21106   1.34329
 Alpha virt. eigenvalues --    1.43442   1.44813   1.51483   1.60772   1.65797
 Alpha virt. eigenvalues --    1.73436   1.82504   1.93456   1.95179   2.01522
 Alpha virt. eigenvalues --    2.11827   2.19995   2.29152   2.41086   2.43254
 Alpha virt. eigenvalues --    2.43937   2.58138   2.71847   2.76994   2.96086
 Alpha virt. eigenvalues --    3.02088   3.20154   3.88909   4.05581   4.20817
 Alpha virt. eigenvalues --    4.36010
          Condensed to atoms (all electrons):
               1          2          3          4          5          6
     1  C    4.520438   0.279344  -0.043313   0.554584   0.400866  -0.008115
     2  N    0.279344   6.876613   0.496788  -0.106324  -0.099404  -0.043705
     3  C   -0.043313   0.496788   4.898670  -0.001809   0.009418   0.364784
     4  O    0.554584  -0.106324  -0.001809   7.993364  -0.056189   0.019956
     5  H    0.400866  -0.099404   0.009418  -0.056189   0.586295   0.000314
     6  H   -0.008115  -0.043705   0.364784   0.019956   0.000314   0.491836
     7  H    0.005277  -0.048646   0.381164   0.000409  -0.000008  -0.041612
               7
     1  C    0.005277
     2  N   -0.048646
     3  C    0.381164
     4  O    0.000409
     5  H   -0.000008
     6  H   -0.041612
     7  H    0.505230
 Mulliken charges:
               1
     1  C    0.290919
     2  N   -0.354664
     3  C   -0.105701
     4  O   -0.403991
     5  H    0.158709
     6  H    0.216543
     7  H    0.198185
 Sum of Mulliken charges =   0.00000
 Mulliken charges with hydrogens summed into heavy atoms:
               1
     1  C    0.449628
     2  N   -0.354664
     3  C    0.309027
     4  O   -0.403991
 Electronic spatial extent (au):  <R**2>=            231.3138
 Charge=             -0.0000 electrons
 Dipole moment (field-independent basis, Debye):
    X=              1.9558    Y=             -0.1182    Z=             -0.0075  Tot=              1.9594
 Quadrupole moment (field-independent basis, Debye-Ang):
   XX=            -21.5174   YY=            -23.6764   ZZ=            -22.5267
   XY=             -5.4824   XZ=              0.0355   YZ=             -0.0008
 Traceless Quadrupole moment (field-independent basis, Debye-Ang):
   XX=              1.0561   YY=             -1.1029   ZZ=              0.0468
   XY=             -5.4824   XZ=              0.0355   YZ=             -0.0008
 Octapole moment (field-independent basis, Debye-Ang**2):
  XXX=              8.3116  YYY=             -4.4756  ZZZ=              0.0086  XYY=             -2.4762
  XXY=              0.4849  XXZ=              0.1017  XZZ=             -1.7740  YZZ=             -0.8761
  YYZ=             -0.0230  XYZ=             -0.0111
 Hexadecapole moment (field-independent basis, Debye-Ang**3):
 XXXX=           -175.0381 YYYY=            -76.2016 ZZZZ=            -19.2448 XXXY=             -6.0168
 XXXZ=              0.3570 YYYX=             -5.0976 YYYZ=             -0.0071 ZZZX=              0.0045
 ZZZY=             -0.0106 XXYY=            -44.7606 XXZZ=            -35.2944 YYZZ=            -16.0600
 XXYZ=             -0.0027 YYXZ=             -0.0084 ZZXY=              0.2832
 N-N= 1.083679221610D+02 E-N=-7.025436112647D+02  KE= 2.061767209648D+02
 1\1\GINC-NODE91\SP\RwB97X\6-31G(d)\C2H3N1O1\YANZ\05-Jun-2019\0\\# 6-31
 g(d) wb97x\\tmpdir/M2_ref_190.gjf\\0,1\C,0,5.090664,4.239112,12.209953
 \N,0,5.965207,3.884381,13.154473\C,0,5.757091,2.720608,13.767767\O,0,4
 .12023224,3.55938518,11.89309492\H,0,5.28206,5.193192,11.720525\H,0,4.
 98824227,2.09789086,13.55891575\H,0,6.470246,2.471497,14.553239\\Versi
 on=ES64L-G16RevA.03\State=1-A\HF=-207.8768339\RMSD=3.130e-09\Dipole=0.
 4126192,-0.3383706,0.556334\Quadrupole=-2.8661866,2.1249327,0.7412539,
 -1.4514186,-1.3336775,-2.5951198\PG=C01 [X(C2H3N1O1)]\\@


 READER, WHETHER YOU BE DILETTANTE OR PROFESSOR ... SHOW YOURSELF TO BE
 MORE HUMAN THAN CRITICAL, AND THEN YOUR PLEASURE WILL INCREASE.
                                           -- DOMENICO SCARLATTI (1738)
 Job cpu time:       0 days  0 hours  0 minutes 18.2 seconds.
 Elapsed time:       0 days  0 hours  0 minutes  9.2 seconds.
 File lengths (MBytes):  RWF=      6 Int=      0 D2E=      0 Chk=      1 Scr=      1
 Normal termination of Gaussian 16 at Wed Jun  5 16:58:41 2019.
