 Entering Gaussian System, Link 0=g16
 Initial command:
 /share/apps/gaussian/g16/l1.exe "/tmp/55478.mgr/Gau-303416.inp" -scrdir="/tmp/55478.mgr/"
 Entering Link 1 = /share/apps/gaussian/g16/l1.exe PID=    303423.
  
 Copyright (c) 1988,1990,1992,1993,1995,1998,2003,2009,2016,
            Gaussian, Inc.  All Rights Reserved.
  
 This is part of the Gaussian(R) 16 program.  It is based on
 the Gaussian(R) 09 system (copyright 2009, Gaussian, Inc.),
 the Gaussian(R) 03 system (copyright 2003, Gaussian, Inc.),
 the Gaussian(R) 98 system (copyright 1998, Gaussian, Inc.),
 the Gaussian(R) 94 system (copyright 1995, Gaussian, Inc.),
 the Gaussian 92(TM) system (copyright 1992, Gaussian, Inc.),
 the Gaussian 90(TM) system (copyright 1990, Gaussian, Inc.),
 the Gaussian 88(TM) system (copyright 1988, Gaussian, Inc.),
 the Gaussian 86(TM) system (copyright 1986, Carnegie Mellon
 University), and the Gaussian 82(TM) system (copyright 1983,
 Carnegie Mellon University). Gaussian is a federally registered
 trademark of Gaussian, Inc.
  
 This software contains proprietary and confidential information,
 including trade secrets, belonging to Gaussian, Inc.
  
 This software is provided under written license and may be
 used, copied, transmitted, or stored only in accord with that
 written license.
  
 The following legend is applicable only to US Government
 contracts under FAR:
  
                    RESTRICTED RIGHTS LEGEND
  
 Use, reproduction and disclosure by the US Government is
 subject to restrictions as set forth in subparagraphs (a)
 and (c) of the Commercial Computer Software - Restricted
 Rights clause in FAR 52.227-19.
  
 Gaussian, Inc.
 340 Quinnipiac St., Bldg. 40, Wallingford CT 06492
  
  
 ---------------------------------------------------------------
 Warning -- This program may not be used in any manner that
 competes with the business of Gaussian, Inc. or will provide
 assistance to any competitor of Gaussian, Inc.  The licensee
 of this program is prohibited from giving any competitor of
 Gaussian, Inc. access to this program.  By using this program,
 the user acknowledges that Gaussian, Inc. is engaged in the
 business of creating and licensing software in the field of
 computational chemistry and represents and warrants to the
 licensee that it is not a competitor of Gaussian, Inc. and that
 it will not use this program in any manner prohibited above.
 ---------------------------------------------------------------
  

 Cite this work as:
 Gaussian 16, Revision A.03,
 M. J. Frisch, G. W. Trucks, H. B. Schlegel, G. E. Scuseria, 
 M. A. Robb, J. R. Cheeseman, G. Scalmani, V. Barone, 
 G. A. Petersson, H. Nakatsuji, X. Li, M. Caricato, A. V. Marenich, 
 J. Bloino, B. G. Janesko, R. Gomperts, B. Mennucci, H. P. Hratchian, 
 J. V. Ortiz, A. F. Izmaylov, J. L. Sonnenberg, D. Williams-Young, 
 F. Ding, F. Lipparini, F. Egidi, J. Goings, B. Peng, A. Petrone, 
 T. Henderson, D. Ranasinghe, V. G. Zakrzewski, J. Gao, N. Rega, 
 G. Zheng, W. Liang, M. Hada, M. Ehara, K. Toyota, R. Fukuda, 
 J. Hasegawa, M. Ishida, T. Nakajima, Y. Honda, O. Kitao, H. Nakai, 
 T. Vreven, K. Throssell, J. A. Montgomery, Jr., J. E. Peralta, 
 F. Ogliaro, M. J. Bearpark, J. J. Heyd, E. N. Brothers, K. N. Kudin, 
 V. N. Staroverov, T. A. Keith, R. Kobayashi, J. Normand, 
 K. Raghavachari, A. P. Rendell, J. C. Burant, S. S. Iyengar, 
 J. Tomasi, M. Cossi, J. M. Millam, M. Klene, C. Adamo, R. Cammi, 
 J. W. Ochterski, R. L. Martin, K. Morokuma, O. Farkas, 
 J. B. Foresman, and D. J. Fox, Gaussian, Inc., Wallingford CT, 2016.
 
 ******************************************
 Gaussian 16:  ES64L-G16RevA.03 25-Dec-2016
                22-Sep-2023 
 ******************************************
 %nprocshared=4
 Will use up to    4 processors via shared memory.
 %mem=4GB
 ----------------
 # 6-31g(d) wb97x
 ----------------
 1/38=1,172=1/1;
 2/12=2,17=6,18=5,40=1/2;
 3/5=1,6=6,7=1,11=2,25=1,30=1,74=-57/1,2,3;
 4//1;
 5/5=2,38=5/2;
 6/7=2,8=2,9=2,10=2,28=1/1;
 99/5=1,9=1/99;
 -----------------------
 tmpdir/M3_conf_0_20.gjf
 -----------------------
 Symbolic Z-matrix:
 Charge =  0 Multiplicity = 1
 N                     0.        0.        0. 
 C                     1.4563    0.        0. 
 H                    -0.34861   0.       -0.95624 
 H                    -0.37107   0.78059   0.52989 
 H                     1.80858  -0.03714   1.03771 
 H                     1.86048   0.92377  -0.46098 
 H                     1.84191  -0.87264  -0.54974 
 
                          Input orientation:                          
 ---------------------------------------------------------------------
 Center     Atomic      Atomic             Coordinates (Angstroms)
 Number     Number       Type             X           Y           Z
 ---------------------------------------------------------------------
      1          7           0        0.000000    0.000000    0.000000
      2          6           0        1.456300    0.000000    0.000000
      3          1           0       -0.348610    0.000000   -0.956240
      4          1           0       -0.371070    0.780590    0.529890
      5          1           0        1.808580   -0.037140    1.037710
      6          1           0        1.860480    0.923770   -0.460980
      7          1           0        1.841910   -0.872640   -0.549740
 ---------------------------------------------------------------------
                    Distance matrix (angstroms):
                    1          2          3          4          5
     1  N    0.000000
     2  C    1.456300   0.000000
     3  H    1.017803   2.042571   0.000000
     4  H    1.013803   2.056547   1.678811   0.000000
     5  H    2.085470   1.096505   2.937803   2.382737   0.000000
     6  H    2.127731   1.108700   2.445141   2.445841   1.781043
     7  H    2.111006   1.101095   2.392722   2.965814   1.794204
                    6          7
     6  H    0.000000
     7  H    1.798697   0.000000
 Stoichiometry    CH5N
 Framework group  C1[X(CH5N)]
 Deg. of freedom    15
 Full point group                 C1      NOp   1
 Largest Abelian subgroup         C1      NOp   1
 Largest concise Abelian subgroup C1      NOp   1
                         Standard orientation:                         
 ---------------------------------------------------------------------
 Center     Atomic      Atomic             Coordinates (Angstroms)
 Number     Number       Type             X           Y           Z
 ---------------------------------------------------------------------
      1          7           0       -0.744619    0.002057   -0.113604
      2          6           0        0.706325    0.000753    0.011175
      3          1           0       -1.130025    0.844402    0.308107
      4          1           0       -1.152448   -0.834153    0.289169
      5          1           0        1.101450   -0.895734   -0.481278
      6          1           0        1.020573   -0.031480    1.073918
      7          1           0        1.134834    0.898053   -0.461733
 ---------------------------------------------------------------------
 Rotational constants (GHZ):         101.5336539          23.1058111          21.9925243
 Standard basis: 6-31G(d) (6D, 7F)
 There are    40 symmetry adapted cartesian basis functions of A   symmetry.
 There are    40 symmetry adapted basis functions of A   symmetry.
    40 basis functions,    76 primitive gaussians,    40 cartesian basis functions
     9 alpha electrons        9 beta electrons
       nuclear repulsion energy        42.0040241854 Hartrees.
 NAtoms=    7 NActive=    7 NUniq=    7 SFac= 1.00D+00 NAtFMM=   60 NAOKFM=F Big=F
 Integral buffers will be    131072 words long.
 Raffenetti 2 integral format.
 Two-electron integral symmetry is turned on.
 One-electron integrals computed using PRISM.
 NBasis=    40 RedAO= T EigKep=  9.09D-03  NBF=    40
 NBsUse=    40 1.00D-06 EigRej= -1.00D+00 NBFU=    40
 ExpMin= 1.61D-01 ExpMax= 4.17D+03 ExpMxC= 6.27D+02 IAcc=3 IRadAn=         5 AccDes= 0.00D+00
 Harris functional with IExCor= 4538 and IRadAn=       5 diagonalized for initial guess.
 HarFok:  IExCor= 4538 AccDes= 0.00D+00 IRadAn=         5 IDoV= 1 UseB2=F ITyADJ=14
 ICtDFT=  3500011 ScaDFX=  1.000000  1.000000  1.000000  1.000000
 FoFCou: FMM=F IPFlag=           0 FMFlag=      100000 FMFlg1=           0
         NFxFlg=           0 DoJE=T BraDBF=F KetDBF=T FulRan=T
         wScrn=  0.000000 ICntrl=       500 IOpCl=  0 I1Cent=   200000004 NGrid=           0
         NMat0=    1 NMatS0=      1 NMatT0=    0 NMatD0=    1 NMtDS0=    0 NMtDT0=    0
 Petite list used in FoFCou.
 Keep R1 ints in memory in canonical form, NReq=4125853.
 Requested convergence on RMS density matrix=1.00D-08 within 128 cycles.
 Requested convergence on MAX density matrix=1.00D-06.
 Requested convergence on             energy=1.00D-06.
 No special actions if energy rises.
 Integral accuracy reduced to 1.0D-05 until final iterations.
 Initial convergence to 1.0D-05 achieved.  Increase integral accuracy.
 SCF Done:  E(RwB97X) =  -95.8215780074     A.U. after   13 cycles
            NFock= 13  Conv=0.93D-08     -V/T= 2.0101

 **********************************************************************

            Population analysis using the SCF density.

 **********************************************************************

 Orbital symmetries:
       Occupied  (A) (A) (A) (A) (A) (A) (A) (A) (A)
       Virtual   (A) (A) (A) (A) (A) (A) (A) (A) (A) (A) (A) (A)
                 (A) (A) (A) (A) (A) (A) (A) (A) (A) (A) (A) (A)
                 (A) (A) (A) (A) (A) (A) (A)
 The electronic state is 1-A.
 Alpha  occ. eigenvalues --  -14.37964 -10.28067  -0.99426  -0.77397  -0.60163
 Alpha  occ. eigenvalues --   -0.53534  -0.50513  -0.47055  -0.32189
 Alpha virt. eigenvalues --    0.18457   0.24226   0.25517   0.27552   0.29056
 Alpha virt. eigenvalues --    0.34146   0.66031   0.67723   0.69745   0.84855
 Alpha virt. eigenvalues --    0.87337   0.89549   0.97721   1.02608   1.04786
 Alpha virt. eigenvalues --    1.05275   1.08716   1.15793   1.48257   1.62687
 Alpha virt. eigenvalues --    1.64867   2.05636   2.14162   2.16103   2.33370
 Alpha virt. eigenvalues --    2.42360   2.45257   2.56013   2.77178   3.88906
 Alpha virt. eigenvalues --    4.37205
          Condensed to atoms (all electrons):
               1          2          3          4          5          6
     1  N    6.900142   0.307293   0.332139   0.332524  -0.038530  -0.055552
     2  C    0.307293   4.928391  -0.039022  -0.036785   0.391086   0.386830
     3  H    0.332139  -0.039022   0.428375  -0.027750   0.005023  -0.003029
     4  H    0.332524  -0.036785  -0.027750   0.423710  -0.003308  -0.002985
     5  H   -0.038530   0.391086   0.005023  -0.003308   0.544038  -0.039132
     6  H   -0.055552   0.386830  -0.003029  -0.002985  -0.039132   0.623827
     7  H   -0.035731   0.390656  -0.003399   0.004615  -0.021729  -0.037676
               7
     1  N   -0.035731
     2  C    0.390656
     3  H   -0.003399
     4  H    0.004615
     5  H   -0.021729
     6  H   -0.037676
     7  H    0.540444
 Mulliken charges:
               1
     1  N   -0.742284
     2  C   -0.328450
     3  H    0.307663
     4  H    0.309979
     5  H    0.162553
     6  H    0.127718
     7  H    0.162821
 Sum of Mulliken charges =  -0.00000
 Mulliken charges with hydrogens summed into heavy atoms:
               1
     1  N   -0.124642
     2  C    0.124642
 Electronic spatial extent (au):  <R**2>=             94.4457
 Charge=              0.0000 electrons
 Dipole moment (field-independent basis, Debye):
    X=              0.1668    Y=             -0.0155    Z=              1.3602  Tot=              1.3704
 Quadrupole moment (field-independent basis, Debye-Ang):
   XX=            -13.6137   YY=            -12.1343   ZZ=            -15.2655
   XY=              0.0768   XZ=             -2.0586   YZ=              0.0231
 Traceless Quadrupole moment (field-independent basis, Debye-Ang):
   XX=              0.0575   YY=              1.5369   ZZ=             -1.5943
   XY=              0.0768   XZ=             -2.0586   YZ=              0.0231
 Octapole moment (field-independent basis, Debye-Ang**2):
  XXX=             -3.2990  YYY=              0.0153  ZZZ=              1.5498  XYY=             -2.1559
  XXY=             -0.0415  XXZ=              1.8903  XZZ=              0.4161  YZZ=             -0.0263
  YYZ=              0.2977  XYZ=             -0.0644
 Hexadecapole moment (field-independent basis, Debye-Ang**3):
 XXXX=            -72.5998 YYYY=            -22.4789 ZZZZ=            -23.3578 XXXY=              0.2921
 XXXZ=             -3.8012 YYYX=              0.0928 YYYZ=              0.0554 ZZZX=             -1.5335
 ZZZY=              0.0091 XXYY=            -13.4893 XXZZ=            -16.8962 YYZZ=             -7.6866
 XXYZ=             -0.0237 YYXZ=             -1.8925 ZZXY=             -0.0135
 N-N= 4.200402418538D+01 E-N=-3.064365011110D+02  KE= 9.486477116772D+01
 1\1\GINC-NODE86\SP\RwB97X\6-31G(d)\C1H5N1\YANZ\22-Sep-2023\0\\# 6-31g(
 d) wb97x\\tmpdir/M3_conf_0_20.gjf\\0,1\N,0,0.,0.,0.\C,0,1.4563,0.,0.\H
 ,0,-0.34861,0.,-0.95624\H,0,-0.37107,0.78059,0.52989\H,0,1.80858,-0.03
 714,1.03771\H,0,1.86048,0.92377,-0.46098\H,0,1.84191,-0.87264,-0.54974
 \\Version=ES64L-G16RevA.03\State=1-A\HF=-95.821578\RMSD=9.279e-09\Dipo
 le=0.1112583,0.4673806,-0.2447128\Quadrupole=-0.2277062,-0.4618245,0.6
 895306,-1.4473179,0.714084,0.8528143\PG=C01 [X(C1H5N1)]\\@


 ACHIEVEMENT--  THE MAN WHO ROWS THE BOAT GENERALLY 
                DOESN'T HAVE TIME TO ROCK IT.

                   -- FROM THE BACK OF A SUGAR PACKET
 Job cpu time:       0 days  0 hours  0 minutes 11.8 seconds.
 Elapsed time:       0 days  0 hours  0 minutes  3.1 seconds.
 File lengths (MBytes):  RWF=      6 Int=      0 D2E=      0 Chk=      1 Scr=      1
 Normal termination of Gaussian 16 at Fri Sep 22 11:10:29 2023.
