 Entering Gaussian System, Link 0=g16
 Initial command:
 /share/apps/gaussian/g16/l1.exe "/tmp/55478.mgr/Gau-307099.inp" -scrdir="/tmp/55478.mgr/"
 Entering Link 1 = /share/apps/gaussian/g16/l1.exe PID=    307100.
  
 Copyright (c) 1988,1990,1992,1993,1995,1998,2003,2009,2016,
            Gaussian, Inc.  All Rights Reserved.
  
 This is part of the Gaussian(R) 16 program.  It is based on
 the Gaussian(R) 09 system (copyright 2009, Gaussian, Inc.),
 the Gaussian(R) 03 system (copyright 2003, Gaussian, Inc.),
 the Gaussian(R) 98 system (copyright 1998, Gaussian, Inc.),
 the Gaussian(R) 94 system (copyright 1995, Gaussian, Inc.),
 the Gaussian 92(TM) system (copyright 1992, Gaussian, Inc.),
 the Gaussian 90(TM) system (copyright 1990, Gaussian, Inc.),
 the Gaussian 88(TM) system (copyright 1988, Gaussian, Inc.),
 the Gaussian 86(TM) system (copyright 1986, Carnegie Mellon
 University), and the Gaussian 82(TM) system (copyright 1983,
 Carnegie Mellon University). Gaussian is a federally registered
 trademark of Gaussian, Inc.
  
 This software contains proprietary and confidential information,
 including trade secrets, belonging to Gaussian, Inc.
  
 This software is provided under written license and may be
 used, copied, transmitted, or stored only in accord with that
 written license.
  
 The following legend is applicable only to US Government
 contracts under FAR:
  
                    RESTRICTED RIGHTS LEGEND
  
 Use, reproduction and disclosure by the US Government is
 subject to restrictions as set forth in subparagraphs (a)
 and (c) of the Commercial Computer Software - Restricted
 Rights clause in FAR 52.227-19.
  
 Gaussian, Inc.
 340 Quinnipiac St., Bldg. 40, Wallingford CT 06492
  
  
 ---------------------------------------------------------------
 Warning -- This program may not be used in any manner that
 competes with the business of Gaussian, Inc. or will provide
 assistance to any competitor of Gaussian, Inc.  The licensee
 of this program is prohibited from giving any competitor of
 Gaussian, Inc. access to this program.  By using this program,
 the user acknowledges that Gaussian, Inc. is engaged in the
 business of creating and licensing software in the field of
 computational chemistry and represents and warrants to the
 licensee that it is not a competitor of Gaussian, Inc. and that
 it will not use this program in any manner prohibited above.
 ---------------------------------------------------------------
  

 Cite this work as:
 Gaussian 16, Revision A.03,
 M. J. Frisch, G. W. Trucks, H. B. Schlegel, G. E. Scuseria, 
 M. A. Robb, J. R. Cheeseman, G. Scalmani, V. Barone, 
 G. A. Petersson, H. Nakatsuji, X. Li, M. Caricato, A. V. Marenich, 
 J. Bloino, B. G. Janesko, R. Gomperts, B. Mennucci, H. P. Hratchian, 
 J. V. Ortiz, A. F. Izmaylov, J. L. Sonnenberg, D. Williams-Young, 
 F. Ding, F. Lipparini, F. Egidi, J. Goings, B. Peng, A. Petrone, 
 T. Henderson, D. Ranasinghe, V. G. Zakrzewski, J. Gao, N. Rega, 
 G. Zheng, W. Liang, M. Hada, M. Ehara, K. Toyota, R. Fukuda, 
 J. Hasegawa, M. Ishida, T. Nakajima, Y. Honda, O. Kitao, H. Nakai, 
 T. Vreven, K. Throssell, J. A. Montgomery, Jr., J. E. Peralta, 
 F. Ogliaro, M. J. Bearpark, J. J. Heyd, E. N. Brothers, K. N. Kudin, 
 V. N. Staroverov, T. A. Keith, R. Kobayashi, J. Normand, 
 K. Raghavachari, A. P. Rendell, J. C. Burant, S. S. Iyengar, 
 J. Tomasi, M. Cossi, J. M. Millam, M. Klene, C. Adamo, R. Cammi, 
 J. W. Ochterski, R. L. Martin, K. Morokuma, O. Farkas, 
 J. B. Foresman, and D. J. Fox, Gaussian, Inc., Wallingford CT, 2016.
 
 ******************************************
 Gaussian 16:  ES64L-G16RevA.03 25-Dec-2016
                22-Sep-2023 
 ******************************************
 %nprocshared=4
 Will use up to    4 processors via shared memory.
 %mem=4GB
 ----------------
 # 6-31g(d) wb97x
 ----------------
 1/38=1,172=1/1;
 2/12=2,17=6,18=5,40=1/2;
 3/5=1,6=6,7=1,11=2,25=1,30=1,74=-57/1,2,3;
 4//1;
 5/5=2,38=5/2;
 6/7=2,8=2,9=2,10=2,28=1/1;
 99/5=1,9=1/99;
 ----------------------
 tmpdir/M3_conf_1_7.gjf
 ----------------------
 Symbolic Z-matrix:
 Charge =  0 Multiplicity = 1
 H                     0.        0.        0. 
 C                     1.0965    0.        0. 
 C                     1.59346   0.        1.43837 
 H                     1.4373   -0.92578  -0.50224 
 H                     1.46464   0.93381  -0.55028 
 H                     1.25924  -0.91588   1.94036 
 H                     1.14547   0.86164   1.97284 
 H                     2.73501   0.03922   1.46752 
 
                          Input orientation:                          
 ---------------------------------------------------------------------
 Center     Atomic      Atomic             Coordinates (Angstroms)
 Number     Number       Type             X           Y           Z
 ---------------------------------------------------------------------
      1          1           0        0.000000    0.000000    0.000000
      2          6           0        1.096500    0.000000    0.000000
      3          6           0        1.593460    0.000000    1.438370
      4          1           0        1.437300   -0.925780   -0.502240
      5          1           0        1.464640    0.933810   -0.550280
      6          1           0        1.259240   -0.915880    1.940360
      7          1           0        1.145470    0.861640    1.972840
      8          1           0        2.735010    0.039220    1.467520
 ---------------------------------------------------------------------
                    Distance matrix (angstroms):
                    1          2          3          4          5
     1  H    0.000000
     2  C    1.096500   0.000000
     3  C    2.146631   1.521801   0.000000
     4  H    1.781894   1.107004   2.155788   0.000000
     5  H    1.822081   1.144699   2.200755   1.860411   0.000000
     6  H    2.487874   2.151817   1.096601   2.449101   3.109153
     7  H    2.438570   2.153351   1.108502   3.066929   2.544251
     8  H    3.104099   2.199970   1.142595   2.548574   2.546694
                    6          7          8
     6  H    0.000000
     7  H    1.781453   0.000000
     8  H    1.820355   1.859667   0.000000
 Stoichiometry    C2H6
 Framework group  C1[X(C2H6)]
 Deg. of freedom    18
 Full point group                 C1      NOp   1
 Largest Abelian subgroup         C1      NOp   1
 Largest concise Abelian subgroup C1      NOp   1
                         Standard orientation:                         
 ---------------------------------------------------------------------
 Center     Atomic      Atomic             Coordinates (Angstroms)
 Number     Number       Type             X           Y           Z
 ---------------------------------------------------------------------
      1          1           0       -1.122087   -0.876575    0.543661
      2          6           0       -0.761058    0.001220   -0.005380
      3          6           0        0.760712    0.002104    0.004206
      4          1           0       -1.117850   -0.079817   -1.050172
      5          1           0       -1.164703    0.944535    0.502129
      6          1           0        1.129828   -0.891191   -0.513781
      7          1           0        1.113006   -0.045682    1.054150
      8          1           0        1.163878    0.928782   -0.528945
 ---------------------------------------------------------------------
 Rotational constants (GHZ):          75.6125724          20.1971319          20.1809574
 Standard basis: 6-31G(d) (6D, 7F)
 There are    42 symmetry adapted cartesian basis functions of A   symmetry.
 There are    42 symmetry adapted basis functions of A   symmetry.
    42 basis functions,    80 primitive gaussians,    42 cartesian basis functions
     9 alpha electrons        9 beta electrons
       nuclear repulsion energy        41.9086868777 Hartrees.
 NAtoms=    8 NActive=    8 NUniq=    8 SFac= 1.00D+00 NAtFMM=   60 NAOKFM=F Big=F
 Integral buffers will be    131072 words long.
 Raffenetti 2 integral format.
 Two-electron integral symmetry is turned on.
 One-electron integrals computed using PRISM.
 NBasis=    42 RedAO= T EigKep=  8.19D-03  NBF=    42
 NBsUse=    42 1.00D-06 EigRej= -1.00D+00 NBFU=    42
 ExpMin= 1.61D-01 ExpMax= 3.05D+03 ExpMxC= 4.57D+02 IAcc=3 IRadAn=         5 AccDes= 0.00D+00
 Harris functional with IExCor= 4538 and IRadAn=       5 diagonalized for initial guess.
 HarFok:  IExCor= 4538 AccDes= 0.00D+00 IRadAn=         5 IDoV= 1 UseB2=F ITyADJ=14
 ICtDFT=  3500011 ScaDFX=  1.000000  1.000000  1.000000  1.000000
 FoFCou: FMM=F IPFlag=           0 FMFlag=      100000 FMFlg1=           0
         NFxFlg=           0 DoJE=T BraDBF=F KetDBF=T FulRan=T
         wScrn=  0.000000 ICntrl=       500 IOpCl=  0 I1Cent=   200000004 NGrid=           0
         NMat0=    1 NMatS0=      1 NMatT0=    0 NMatD0=    1 NMtDS0=    0 NMtDT0=    0
 Petite list used in FoFCou.
 Keep R1 ints in memory in canonical form, NReq=4269602.
 Requested convergence on RMS density matrix=1.00D-08 within 128 cycles.
 Requested convergence on MAX density matrix=1.00D-06.
 Requested convergence on             energy=1.00D-06.
 No special actions if energy rises.
 Integral accuracy reduced to 1.0D-05 until final iterations.
 Initial convergence to 1.0D-05 achieved.  Increase integral accuracy.
 SCF Done:  E(RwB97X) =  -79.7971878520     A.U. after   12 cycles
            NFock= 12  Conv=0.25D-08     -V/T= 2.0123

 **********************************************************************

            Population analysis using the SCF density.

 **********************************************************************

 Orbital symmetries:
       Occupied  (A) (A) (A) (A) (A) (A) (A) (A) (A)
       Virtual   (A) (A) (A) (A) (A) (A) (A) (A) (A) (A) (A) (A)
                 (A) (A) (A) (A) (A) (A) (A) (A) (A) (A) (A) (A)
                 (A) (A) (A) (A) (A) (A) (A) (A) (A)
 The electronic state is 1-A.
 Alpha  occ. eigenvalues --  -10.26091 -10.26071  -0.87882  -0.72421  -0.54442
 Alpha  occ. eigenvalues --   -0.54048  -0.45984  -0.44000  -0.43699
 Alpha virt. eigenvalues --    0.19225   0.25212   0.25288   0.25835   0.28124
 Alpha virt. eigenvalues --    0.28376   0.33585   0.61331   0.66142   0.66193
 Alpha virt. eigenvalues --    0.73894   0.74644   0.78849   0.97527   0.98849
 Alpha virt. eigenvalues --    1.00356   1.02332   1.03864   1.08731   1.17217
 Alpha virt. eigenvalues --    1.54892   1.61637   1.61838   2.05494   2.10330
 Alpha virt. eigenvalues --    2.11285   2.34894   2.36988   2.40228   2.41334
 Alpha virt. eigenvalues --    2.70868   4.26556   4.48509
          Condensed to atoms (all electrons):
               1          2          3          4          5          6
     1  H    0.551872   0.387927  -0.037672  -0.028949  -0.026699  -0.003040
     2  C    0.387927   5.058246   0.350976   0.387315   0.383735  -0.037142
     3  C   -0.037672   0.350976   5.058712  -0.037856  -0.035173   0.387876
     4  H   -0.028949   0.387315  -0.037856   0.550172  -0.023074  -0.004162
     5  H   -0.026699   0.383735  -0.035173  -0.023074   0.557465   0.004159
     6  H   -0.003040  -0.037142   0.387876  -0.004162   0.004159   0.551514
     7  H   -0.004265  -0.038129   0.387223   0.004473  -0.002883  -0.029092
     8  H    0.004203  -0.035229   0.383873  -0.002832  -0.003853  -0.026795
               7          8
     1  H   -0.004265   0.004203
     2  C   -0.038129  -0.035229
     3  C    0.387223   0.383873
     4  H    0.004473  -0.002832
     5  H   -0.002883  -0.003853
     6  H   -0.029092  -0.026795
     7  H    0.551375  -0.023043
     8  H   -0.023043   0.556903
 Mulliken charges:
               1
     1  H    0.156624
     2  C   -0.457699
     3  C   -0.457960
     4  H    0.154913
     5  H    0.146324
     6  H    0.156683
     7  H    0.154342
     8  H    0.146774
 Sum of Mulliken charges =   0.00000
 Mulliken charges with hydrogens summed into heavy atoms:
               1
     2  C    0.000162
     3  C   -0.000162
 Electronic spatial extent (au):  <R**2>=            109.6224
 Charge=              0.0000 electrons
 Dipole moment (field-independent basis, Debye):
    X=              0.0007    Y=             -0.0871    Z=              0.0012  Tot=              0.0871
 Quadrupole moment (field-independent basis, Debye-Ang):
   XX=            -15.7371   YY=            -14.6830   ZZ=            -14.6495
   XY=             -0.0066   XZ=             -0.0444   YZ=             -0.0008
 Traceless Quadrupole moment (field-independent basis, Debye-Ang):
   XX=             -0.7139   YY=              0.3402   ZZ=              0.3737
   XY=             -0.0066   XZ=             -0.0444   YZ=             -0.0008
 Octapole moment (field-independent basis, Debye-Ang**2):
  XXX=              0.0114  YYY=             -0.1134  ZZZ=              0.0066  XYY=             -0.0012
  XXY=             -0.1225  XXZ=             -0.0165  XZZ=             -0.0011  YZZ=             -0.1960
  YYZ=             -0.0026  XYZ=             -0.1897
 Hexadecapole moment (field-independent basis, Debye-Ang**3):
 XXXX=            -93.0999 YYYY=            -29.5348 ZZZZ=            -29.2126 XXXY=             -0.0242
 XXXZ=             -0.1522 YYYX=             -0.0715 YYYZ=             -0.0033 ZZZX=              1.4525
 ZZZY=             -0.0018 XXYY=            -19.0577 XXZZ=            -19.1272 YYZZ=             -9.7861
 XXYZ=              0.0064 YYXZ=             -1.4632 ZZXY=              0.0675
 N-N= 4.190868687770D+01 E-N=-2.674627333677D+02  KE= 7.882439762599D+01
 1\1\GINC-NODE86\SP\RwB97X\6-31G(d)\C2H6\YANZ\22-Sep-2023\0\\# 6-31g(d)
  wb97x\\tmpdir/M3_conf_1_7.gjf\\0,1\H,0,0.,0.,0.\C,0,1.0965,0.,0.\C,0,
 1.59346,0.,1.43837\H,0,1.4373,-0.92578,-0.50224\H,0,1.46464,0.93381,-0
 .55028\H,0,1.25924,-0.91588,1.94036\H,0,1.14547,0.86164,1.97284\H,0,2.
 73501,0.03922,1.46752\\Version=ES64L-G16RevA.03\State=1-A\HF=-79.79718
 79\RMSD=2.480e-09\Dipole=-0.0275704,-0.0178212,0.009789\Quadrupole=0.1
 829924,0.270605,-0.4535974,-0.0195017,-0.2356484,-0.0208066\PG=C01 [X(
 C2H6)]\\@


 DEMOCRATS BUY MOST OF THE BOOKS THAT HAVE BEEN
 BANNED; REPUBLICANS FORM CENSORSHIP COMMITTEES AND
 READ THEM AS A GROUP.
 Job cpu time:       0 days  0 hours  0 minutes 12.2 seconds.
 Elapsed time:       0 days  0 hours  0 minutes  3.2 seconds.
 File lengths (MBytes):  RWF=      6 Int=      0 D2E=      0 Chk=      1 Scr=      1
 Normal termination of Gaussian 16 at Fri Sep 22 11:12:29 2023.
