 Entering Gaussian System, Link 0=g16
 Initial command:
 /share/apps/gaussian/g16/l1.exe "/tmp/55478.mgr/Gau-303900.inp" -scrdir="/tmp/55478.mgr/"
 Entering Link 1 = /share/apps/gaussian/g16/l1.exe PID=    303901.
  
 Copyright (c) 1988,1990,1992,1993,1995,1998,2003,2009,2016,
            Gaussian, Inc.  All Rights Reserved.
  
 This is part of the Gaussian(R) 16 program.  It is based on
 the Gaussian(R) 09 system (copyright 2009, Gaussian, Inc.),
 the Gaussian(R) 03 system (copyright 2003, Gaussian, Inc.),
 the Gaussian(R) 98 system (copyright 1998, Gaussian, Inc.),
 the Gaussian(R) 94 system (copyright 1995, Gaussian, Inc.),
 the Gaussian 92(TM) system (copyright 1992, Gaussian, Inc.),
 the Gaussian 90(TM) system (copyright 1990, Gaussian, Inc.),
 the Gaussian 88(TM) system (copyright 1988, Gaussian, Inc.),
 the Gaussian 86(TM) system (copyright 1986, Carnegie Mellon
 University), and the Gaussian 82(TM) system (copyright 1983,
 Carnegie Mellon University). Gaussian is a federally registered
 trademark of Gaussian, Inc.
  
 This software contains proprietary and confidential information,
 including trade secrets, belonging to Gaussian, Inc.
  
 This software is provided under written license and may be
 used, copied, transmitted, or stored only in accord with that
 written license.
  
 The following legend is applicable only to US Government
 contracts under FAR:
  
                    RESTRICTED RIGHTS LEGEND
  
 Use, reproduction and disclosure by the US Government is
 subject to restrictions as set forth in subparagraphs (a)
 and (c) of the Commercial Computer Software - Restricted
 Rights clause in FAR 52.227-19.
  
 Gaussian, Inc.
 340 Quinnipiac St., Bldg. 40, Wallingford CT 06492
  
  
 ---------------------------------------------------------------
 Warning -- This program may not be used in any manner that
 competes with the business of Gaussian, Inc. or will provide
 assistance to any competitor of Gaussian, Inc.  The licensee
 of this program is prohibited from giving any competitor of
 Gaussian, Inc. access to this program.  By using this program,
 the user acknowledges that Gaussian, Inc. is engaged in the
 business of creating and licensing software in the field of
 computational chemistry and represents and warrants to the
 licensee that it is not a competitor of Gaussian, Inc. and that
 it will not use this program in any manner prohibited above.
 ---------------------------------------------------------------
  

 Cite this work as:
 Gaussian 16, Revision A.03,
 M. J. Frisch, G. W. Trucks, H. B. Schlegel, G. E. Scuseria, 
 M. A. Robb, J. R. Cheeseman, G. Scalmani, V. Barone, 
 G. A. Petersson, H. Nakatsuji, X. Li, M. Caricato, A. V. Marenich, 
 J. Bloino, B. G. Janesko, R. Gomperts, B. Mennucci, H. P. Hratchian, 
 J. V. Ortiz, A. F. Izmaylov, J. L. Sonnenberg, D. Williams-Young, 
 F. Ding, F. Lipparini, F. Egidi, J. Goings, B. Peng, A. Petrone, 
 T. Henderson, D. Ranasinghe, V. G. Zakrzewski, J. Gao, N. Rega, 
 G. Zheng, W. Liang, M. Hada, M. Ehara, K. Toyota, R. Fukuda, 
 J. Hasegawa, M. Ishida, T. Nakajima, Y. Honda, O. Kitao, H. Nakai, 
 T. Vreven, K. Throssell, J. A. Montgomery, Jr., J. E. Peralta, 
 F. Ogliaro, M. J. Bearpark, J. J. Heyd, E. N. Brothers, K. N. Kudin, 
 V. N. Staroverov, T. A. Keith, R. Kobayashi, J. Normand, 
 K. Raghavachari, A. P. Rendell, J. C. Burant, S. S. Iyengar, 
 J. Tomasi, M. Cossi, J. M. Millam, M. Klene, C. Adamo, R. Cammi, 
 J. W. Ochterski, R. L. Martin, K. Morokuma, O. Farkas, 
 J. B. Foresman, and D. J. Fox, Gaussian, Inc., Wallingford CT, 2016.
 
 ******************************************
 Gaussian 16:  ES64L-G16RevA.03 25-Dec-2016
                22-Sep-2023 
 ******************************************
 %nprocshared=4
 Will use up to    4 processors via shared memory.
 %mem=4GB
 ----------------
 # 6-31g(d) wb97x
 ----------------
 1/38=1,172=1/1;
 2/12=2,17=6,18=5,40=1/2;
 3/5=1,6=6,7=1,11=2,25=1,30=1,74=-57/1,2,3;
 4//1;
 5/5=2,38=5/2;
 6/7=2,8=2,9=2,10=2,28=1/1;
 99/5=1,9=1/99;
 ----------------------
 tmpdir/M3_conf_0_3.gjf
 ----------------------
 Symbolic Z-matrix:
 Charge =  0 Multiplicity = 1
 C                     0.        0.        0. 
 N                     1.4652    0.        0. 
 H                    -0.40428   0.       -1.03054 
 H                    -0.35264   0.90947   0.50081 
 H                    -0.3811   -0.88483   0.53419 
 H                     1.81283  -0.85556  -0.43499 
 H                     1.84262   0.83162  -0.44591 
 
                          Input orientation:                          
 ---------------------------------------------------------------------
 Center     Atomic      Atomic             Coordinates (Angstroms)
 Number     Number       Type             X           Y           Z
 ---------------------------------------------------------------------
      1          6           0        0.000000    0.000000    0.000000
      2          7           0        1.465200    0.000000    0.000000
      3          1           0       -0.404280    0.000000   -1.030540
      4          1           0       -0.352640    0.909470    0.500810
      5          1           0       -0.381100   -0.884830    0.534190
      6          1           0        1.812830   -0.855560   -0.434990
      7          1           0        1.842620    0.831620   -0.445910
 ---------------------------------------------------------------------
                    Distance matrix (angstroms):
                    1          2          3          4          5
     1  C    0.000000
     2  N    1.465200   0.000000
     3  H    1.107003   2.134706   0.000000
     4  H    1.096495   2.093439   1.781807   0.000000
     5  H    1.101599   2.115917   1.797732   1.794836   0.000000
     6  H    2.051232   1.020806   2.449947   2.946237   2.398645
     7  H    2.070187   1.016304   2.466160   2.391967   2.975185
                    6          7
     6  H    0.000000
     7  H    1.687478   0.000000
 Stoichiometry    CH5N
 Framework group  C1[X(CH5N)]
 Deg. of freedom    15
 Full point group                 C1      NOp   1
 Largest Abelian subgroup         C1      NOp   1
 Largest concise Abelian subgroup C1      NOp   1
                         Standard orientation:                         
 ---------------------------------------------------------------------
 Center     Atomic      Atomic             Coordinates (Angstroms)
 Number     Number       Type             X           Y           Z
 ---------------------------------------------------------------------
      1          6           0       -0.711233   -0.000028    0.011498
      2          7           0        0.748719    0.001479   -0.112401
      3          1           0       -1.026914   -0.014479    1.072437
      4          1           0       -1.105077   -0.902956   -0.470072
      5          1           0       -1.136031    0.891602   -0.476418
      6          1           0        1.131997    0.851393    0.303278
      7          1           0        1.162391   -0.835747    0.288597
 ---------------------------------------------------------------------
 Rotational constants (GHZ):         101.3507315          22.8817027          21.7691590
 Standard basis: 6-31G(d) (6D, 7F)
 There are    40 symmetry adapted cartesian basis functions of A   symmetry.
 There are    40 symmetry adapted basis functions of A   symmetry.
    40 basis functions,    76 primitive gaussians,    40 cartesian basis functions
     9 alpha electrons        9 beta electrons
       nuclear repulsion energy        41.8550817123 Hartrees.
 NAtoms=    7 NActive=    7 NUniq=    7 SFac= 1.00D+00 NAtFMM=   60 NAOKFM=F Big=F
 Integral buffers will be    131072 words long.
 Raffenetti 2 integral format.
 Two-electron integral symmetry is turned on.
 One-electron integrals computed using PRISM.
 NBasis=    40 RedAO= T EigKep=  9.25D-03  NBF=    40
 NBsUse=    40 1.00D-06 EigRej= -1.00D+00 NBFU=    40
 ExpMin= 1.61D-01 ExpMax= 4.17D+03 ExpMxC= 6.27D+02 IAcc=3 IRadAn=         5 AccDes= 0.00D+00
 Harris functional with IExCor= 4538 and IRadAn=       5 diagonalized for initial guess.
 HarFok:  IExCor= 4538 AccDes= 0.00D+00 IRadAn=         5 IDoV= 1 UseB2=F ITyADJ=14
 ICtDFT=  3500011 ScaDFX=  1.000000  1.000000  1.000000  1.000000
 FoFCou: FMM=F IPFlag=           0 FMFlag=      100000 FMFlg1=           0
         NFxFlg=           0 DoJE=T BraDBF=F KetDBF=T FulRan=T
         wScrn=  0.000000 ICntrl=       500 IOpCl=  0 I1Cent=   200000004 NGrid=           0
         NMat0=    1 NMatS0=      1 NMatT0=    0 NMatD0=    1 NMtDS0=    0 NMtDT0=    0
 Petite list used in FoFCou.
 Keep R1 ints in memory in canonical form, NReq=4125853.
 Requested convergence on RMS density matrix=1.00D-08 within 128 cycles.
 Requested convergence on MAX density matrix=1.00D-06.
 Requested convergence on             energy=1.00D-06.
 No special actions if energy rises.
 Integral accuracy reduced to 1.0D-05 until final iterations.
 Initial convergence to 1.0D-05 achieved.  Increase integral accuracy.
 SCF Done:  E(RwB97X) =  -95.8214094852     A.U. after   13 cycles
            NFock= 13  Conv=0.85D-08     -V/T= 2.0104

 **********************************************************************

            Population analysis using the SCF density.

 **********************************************************************

 Orbital symmetries:
       Occupied  (A) (A) (A) (A) (A) (A) (A) (A) (A)
       Virtual   (A) (A) (A) (A) (A) (A) (A) (A) (A) (A) (A) (A)
                 (A) (A) (A) (A) (A) (A) (A) (A) (A) (A) (A) (A)
                 (A) (A) (A) (A) (A) (A) (A)
 The electronic state is 1-A.
 Alpha  occ. eigenvalues --  -14.38029 -10.28126  -0.99105  -0.77417  -0.60013
 Alpha  occ. eigenvalues --   -0.53383  -0.50411  -0.47124  -0.32162
 Alpha virt. eigenvalues --    0.18419   0.24133   0.25528   0.27586   0.29012
 Alpha virt. eigenvalues --    0.33806   0.65968   0.67603   0.69670   0.84756
 Alpha virt. eigenvalues --    0.87572   0.89465   0.97751   1.02393   1.04608
 Alpha virt. eigenvalues --    1.05393   1.08588   1.15666   1.48087   1.62570
 Alpha virt. eigenvalues --    1.65010   2.05624   2.13563   2.15648   2.33162
 Alpha virt. eigenvalues --    2.41825   2.44760   2.55396   2.76838   3.88528
 Alpha virt. eigenvalues --    4.37250
          Condensed to atoms (all electrons):
               1          2          3          4          5          6
     1  C    4.928643   0.306342   0.386275   0.390865   0.390496  -0.038564
     2  N    0.306342   6.903577  -0.054252  -0.037599  -0.035659   0.331227
     3  H    0.386275  -0.054252   0.620631  -0.038611  -0.037804  -0.003002
     4  H    0.390865  -0.037599  -0.038611   0.542542  -0.021769   0.004865
     5  H    0.390496  -0.035659  -0.037804  -0.021769   0.540376  -0.003173
     6  H   -0.038564   0.331227  -0.003002   0.004865  -0.003173   0.428411
     7  H   -0.035997   0.331512  -0.002755  -0.003200   0.004471  -0.027313
               7
     1  C   -0.035997
     2  N    0.331512
     3  H   -0.002755
     4  H   -0.003200
     5  H    0.004471
     6  H   -0.027313
     7  H    0.423112
 Mulliken charges:
               1
     1  C   -0.328060
     2  N   -0.745148
     3  H    0.129517
     4  H    0.162908
     5  H    0.163062
     6  H    0.307549
     7  H    0.310172
 Sum of Mulliken charges =   0.00000
 Mulliken charges with hydrogens summed into heavy atoms:
               1
     1  C    0.127427
     2  N   -0.127427
 Electronic spatial extent (au):  <R**2>=             94.9396
 Charge=              0.0000 electrons
 Dipole moment (field-independent basis, Debye):
    X=             -0.1791    Y=             -0.0119    Z=              1.3526  Tot=              1.3645
 Quadrupole moment (field-independent basis, Debye-Ang):
   XX=            -13.5810   YY=            -12.1198   ZZ=            -15.2769
   XY=             -0.0721   XZ=              2.0416   YZ=              0.0179
 Traceless Quadrupole moment (field-independent basis, Debye-Ang):
   XX=              0.0782   YY=              1.5395   ZZ=             -1.6177
   XY=             -0.0721   XZ=              2.0416   YZ=              0.0179
 Octapole moment (field-independent basis, Debye-Ang**2):
  XXX=              3.3042  YYY=              0.0054  ZZZ=              1.5554  XYY=              2.1825
  XXY=             -0.0691  XXZ=              1.8936  XZZ=             -0.4586  YZZ=             -0.0054
  YYZ=              0.2931  XYZ=              0.0574
 Hexadecapole moment (field-independent basis, Debye-Ang**3):
 XXXX=            -73.1571 YYYY=            -22.5038 ZZZZ=            -23.3192 XXXY=             -0.3075
 XXXZ=              3.7822 YYYX=             -0.0457 YYYZ=              0.0513 ZZZX=              1.4908
 ZZZY=              0.0034 XXYY=            -13.5383 XXZZ=            -16.9877 YYZZ=             -7.6930
 XXYZ=             -0.0389 YYXZ=              1.8990 ZZXY=             -0.0126
 N-N= 4.185508171230D+01 E-N=-3.061265899129D+02  KE= 9.483912844234D+01
 1\1\GINC-NODE86\SP\RwB97X\6-31G(d)\C1H5N1\YANZ\22-Sep-2023\0\\# 6-31g(
 d) wb97x\\tmpdir/M3_conf_0_3.gjf\\0,1\C,0,0.,0.,0.\N,0,1.4652,0.,0.\H,
 0,-0.40428,0.,-1.03054\H,0,-0.35264,0.90947,0.50081\H,0,-0.3811,-0.884
 83,0.53419\H,0,1.81283,-0.85556,-0.43499\H,0,1.84262,0.83162,-0.44591\
 \Version=ES64L-G16RevA.03\State=1-A\HF=-95.8214095\RMSD=8.486e-09\Dipo
 le=-0.1152306,-0.0025663,-0.524308\Quadrupole=-0.206749,1.1444719,-0.9
 377229,0.0313032,-1.6030012,-0.0212857\PG=C01 [X(C1H5N1)]\\@


 ... IT IS NO ONE DREAME THAT
     CAN PLEASE THESE ALL ...

                -- BEN JONSON
 Job cpu time:       0 days  0 hours  0 minutes 11.4 seconds.
 Elapsed time:       0 days  0 hours  0 minutes  3.0 seconds.
 File lengths (MBytes):  RWF=      6 Int=      0 D2E=      0 Chk=      1 Scr=      1
 Normal termination of Gaussian 16 at Fri Sep 22 11:10:35 2023.
