 Entering Gaussian System, Link 0=g16
 Initial command:
 /share/apps/gaussian/g16/l1.exe "/tmp/55478.mgr/Gau-307135.inp" -scrdir="/tmp/55478.mgr/"
 Entering Link 1 = /share/apps/gaussian/g16/l1.exe PID=    307139.
  
 Copyright (c) 1988,1990,1992,1993,1995,1998,2003,2009,2016,
            Gaussian, Inc.  All Rights Reserved.
  
 This is part of the Gaussian(R) 16 program.  It is based on
 the Gaussian(R) 09 system (copyright 2009, Gaussian, Inc.),
 the Gaussian(R) 03 system (copyright 2003, Gaussian, Inc.),
 the Gaussian(R) 98 system (copyright 1998, Gaussian, Inc.),
 the Gaussian(R) 94 system (copyright 1995, Gaussian, Inc.),
 the Gaussian 92(TM) system (copyright 1992, Gaussian, Inc.),
 the Gaussian 90(TM) system (copyright 1990, Gaussian, Inc.),
 the Gaussian 88(TM) system (copyright 1988, Gaussian, Inc.),
 the Gaussian 86(TM) system (copyright 1986, Carnegie Mellon
 University), and the Gaussian 82(TM) system (copyright 1983,
 Carnegie Mellon University). Gaussian is a federally registered
 trademark of Gaussian, Inc.
  
 This software contains proprietary and confidential information,
 including trade secrets, belonging to Gaussian, Inc.
  
 This software is provided under written license and may be
 used, copied, transmitted, or stored only in accord with that
 written license.
  
 The following legend is applicable only to US Government
 contracts under FAR:
  
                    RESTRICTED RIGHTS LEGEND
  
 Use, reproduction and disclosure by the US Government is
 subject to restrictions as set forth in subparagraphs (a)
 and (c) of the Commercial Computer Software - Restricted
 Rights clause in FAR 52.227-19.
  
 Gaussian, Inc.
 340 Quinnipiac St., Bldg. 40, Wallingford CT 06492
  
  
 ---------------------------------------------------------------
 Warning -- This program may not be used in any manner that
 competes with the business of Gaussian, Inc. or will provide
 assistance to any competitor of Gaussian, Inc.  The licensee
 of this program is prohibited from giving any competitor of
 Gaussian, Inc. access to this program.  By using this program,
 the user acknowledges that Gaussian, Inc. is engaged in the
 business of creating and licensing software in the field of
 computational chemistry and represents and warrants to the
 licensee that it is not a competitor of Gaussian, Inc. and that
 it will not use this program in any manner prohibited above.
 ---------------------------------------------------------------
  

 Cite this work as:
 Gaussian 16, Revision A.03,
 M. J. Frisch, G. W. Trucks, H. B. Schlegel, G. E. Scuseria, 
 M. A. Robb, J. R. Cheeseman, G. Scalmani, V. Barone, 
 G. A. Petersson, H. Nakatsuji, X. Li, M. Caricato, A. V. Marenich, 
 J. Bloino, B. G. Janesko, R. Gomperts, B. Mennucci, H. P. Hratchian, 
 J. V. Ortiz, A. F. Izmaylov, J. L. Sonnenberg, D. Williams-Young, 
 F. Ding, F. Lipparini, F. Egidi, J. Goings, B. Peng, A. Petrone, 
 T. Henderson, D. Ranasinghe, V. G. Zakrzewski, J. Gao, N. Rega, 
 G. Zheng, W. Liang, M. Hada, M. Ehara, K. Toyota, R. Fukuda, 
 J. Hasegawa, M. Ishida, T. Nakajima, Y. Honda, O. Kitao, H. Nakai, 
 T. Vreven, K. Throssell, J. A. Montgomery, Jr., J. E. Peralta, 
 F. Ogliaro, M. J. Bearpark, J. J. Heyd, E. N. Brothers, K. N. Kudin, 
 V. N. Staroverov, T. A. Keith, R. Kobayashi, J. Normand, 
 K. Raghavachari, A. P. Rendell, J. C. Burant, S. S. Iyengar, 
 J. Tomasi, M. Cossi, J. M. Millam, M. Klene, C. Adamo, R. Cammi, 
 J. W. Ochterski, R. L. Martin, K. Morokuma, O. Farkas, 
 J. B. Foresman, and D. J. Fox, Gaussian, Inc., Wallingford CT, 2016.
 
 ******************************************
 Gaussian 16:  ES64L-G16RevA.03 25-Dec-2016
                22-Sep-2023 
 ******************************************
 %nprocshared=4
 Will use up to    4 processors via shared memory.
 %mem=4GB
 ----------------
 # 6-31g(d) wb97x
 ----------------
 1/38=1,172=1/1;
 2/12=2,17=6,18=5,40=1/2;
 3/5=1,6=6,7=1,11=2,25=1,30=1,74=-57/1,2,3;
 4//1;
 5/5=2,38=5/2;
 6/7=2,8=2,9=2,10=2,28=1/1;
 99/5=1,9=1/99;
 -----------------------
 tmpdir/M3_conf_1_22.gjf
 -----------------------
 Symbolic Z-matrix:
 Charge =  0 Multiplicity = 1
 C                     0.        0.        0. 
 N                     1.4536    0.        0. 
 C                     2.02515   0.        1.33674 
 H                    -0.38597   0.87404   0.54828 
 H                    -0.35267   0.03479  -1.03776 
 H                    -0.40429  -0.92201   0.46392 
 H                     1.82434  -0.78051  -0.53024 
 H                     3.11779   0.03714   1.25269 
 H                     1.76019  -0.92377   1.8896 
 H                     1.67127   0.87264   1.90743 
 
                          Input orientation:                          
 ---------------------------------------------------------------------
 Center     Atomic      Atomic             Coordinates (Angstroms)
 Number     Number       Type             X           Y           Z
 ---------------------------------------------------------------------
      1          6           0        0.000000    0.000000    0.000000
      2          7           0        1.453600    0.000000    0.000000
      3          6           0        2.025150    0.000000    1.336740
      4          1           0       -0.385970    0.874040    0.548280
      5          1           0       -0.352670    0.034790   -1.037760
      6          1           0       -0.404290   -0.922010    0.463920
      7          1           0        1.824340   -0.780510   -0.530240
      8          1           0        3.117790    0.037140    1.252690
      9          1           0        1.760190   -0.923770    1.889600
     10          1           0        1.671270    0.872640    1.907430
 ---------------------------------------------------------------------
                    Distance matrix (angstroms):
                    1          2          3          4          5
     1  C    0.000000
     2  N    1.453600   0.000000
     3  C    2.426542   1.453803   0.000000
     4  H    1.101603   2.109164   2.683117   0.000000
     5  H    1.096600   2.083451   3.360579   1.794707   0.000000
     6  H    1.108501   2.125342   2.741185   1.798123   1.781340
     7  H    2.053915   1.013804   2.033503   2.964154   2.379425
     8  H    3.360242   2.083300   1.096497   3.670549   4.158156
     9  H    2.742664   2.125544   1.108697   3.104394   3.735298
    10  H    2.681964   2.108831   1.101099   2.465670   3.670486
                    6          7          8          9         10
     6  H    0.000000
     7  H    2.444416   0.000000
     8  H    3.734592   2.349554   0.000000
     9  H    2.591822   2.424926   1.781033   0.000000
    10  H    3.100393   2.949334   1.794203   1.798698   0.000000
 Stoichiometry    C2H7N
 Framework group  C1[X(C2H7N)]
 Deg. of freedom    24
 Full point group                 C1      NOp   1
 Largest Abelian subgroup         C1      NOp   1
 Largest concise Abelian subgroup C1      NOp   1
                         Standard orientation:                         
 ---------------------------------------------------------------------
 Center     Atomic      Atomic             Coordinates (Angstroms)
 Number     Number       Type             X           Y           Z
 ---------------------------------------------------------------------
      1          6           0        1.214127   -0.224648    0.019364
      2          7           0        0.000239    0.555350   -0.156796
      3          6           0       -1.212414   -0.227116    0.018603
      4          1           0        1.235295   -1.070353   -0.686231
      5          1           0        2.079541    0.424027   -0.161780
      6          1           0        1.296050   -0.617190    1.052792
      7          1           0       -0.018085    1.357653    0.462698
      8          1           0       -2.078611    0.419522   -0.165431
      9          1           0       -1.295771   -0.616975    1.053141
     10          1           0       -1.230373   -1.073554   -0.685413
 ---------------------------------------------------------------------
 Rotational constants (GHZ):          34.6105588           9.3204499           8.2363052
 Standard basis: 6-31G(d) (6D, 7F)
 There are    59 symmetry adapted cartesian basis functions of A   symmetry.
 There are    59 symmetry adapted basis functions of A   symmetry.
    59 basis functions,   112 primitive gaussians,    59 cartesian basis functions
    13 alpha electrons       13 beta electrons
       nuclear repulsion energy        84.0733278982 Hartrees.
 NAtoms=   10 NActive=   10 NUniq=   10 SFac= 1.00D+00 NAtFMM=   60 NAOKFM=F Big=F
 Integral buffers will be    131072 words long.
 Raffenetti 2 integral format.
 Two-electron integral symmetry is turned on.
 One-electron integrals computed using PRISM.
 NBasis=    59 RedAO= T EigKep=  7.51D-03  NBF=    59
 NBsUse=    59 1.00D-06 EigRej= -1.00D+00 NBFU=    59
 ExpMin= 1.61D-01 ExpMax= 4.17D+03 ExpMxC= 6.27D+02 IAcc=3 IRadAn=         5 AccDes= 0.00D+00
 Harris functional with IExCor= 4538 and IRadAn=       5 diagonalized for initial guess.
 HarFok:  IExCor= 4538 AccDes= 0.00D+00 IRadAn=         5 IDoV= 1 UseB2=F ITyADJ=14
 ICtDFT=  3500011 ScaDFX=  1.000000  1.000000  1.000000  1.000000
 FoFCou: FMM=F IPFlag=           0 FMFlag=      100000 FMFlg1=           0
         NFxFlg=           0 DoJE=T BraDBF=F KetDBF=T FulRan=T
         wScrn=  0.000000 ICntrl=       500 IOpCl=  0 I1Cent=   200000004 NGrid=           0
         NMat0=    1 NMatS0=      1 NMatT0=    0 NMatD0=    1 NMtDS0=    0 NMtDT0=    0
 Petite list used in FoFCou.
 Keep R1 ints in memory in canonical form, NReq=6654843.
 Requested convergence on RMS density matrix=1.00D-08 within 128 cycles.
 Requested convergence on MAX density matrix=1.00D-06.
 Requested convergence on             energy=1.00D-06.
 No special actions if energy rises.
 Integral accuracy reduced to 1.0D-05 until final iterations.
 Initial convergence to 1.0D-05 achieved.  Increase integral accuracy.
 SCF Done:  E(RwB97X) =  -135.120370216     A.U. after   13 cycles
            NFock= 13  Conv=0.80D-08     -V/T= 2.0102

 **********************************************************************

            Population analysis using the SCF density.

 **********************************************************************

 Orbital symmetries:
       Occupied  (A) (A) (A) (A) (A) (A) (A) (A) (A) (A) (A) (A)
                 (A)
       Virtual   (A) (A) (A) (A) (A) (A) (A) (A) (A) (A) (A) (A)
                 (A) (A) (A) (A) (A) (A) (A) (A) (A) (A) (A) (A)
                 (A) (A) (A) (A) (A) (A) (A) (A) (A) (A) (A) (A)
                 (A) (A) (A) (A) (A) (A) (A) (A) (A) (A)
 The electronic state is 1-A.
 Alpha  occ. eigenvalues --  -14.38595 -10.28056 -10.28008  -1.02055  -0.82114
 Alpha  occ. eigenvalues --   -0.74268  -0.59540  -0.54731  -0.53452  -0.48864
 Alpha  occ. eigenvalues --   -0.46874  -0.45914  -0.30821
 Alpha virt. eigenvalues --    0.18112   0.23115   0.25122   0.25469   0.26560
 Alpha virt. eigenvalues --    0.28953   0.29353   0.31429   0.36712   0.63061
 Alpha virt. eigenvalues --    0.64445   0.68196   0.69872   0.70731   0.84405
 Alpha virt. eigenvalues --    0.86007   0.93113   0.94815   0.97518   1.01660
 Alpha virt. eigenvalues --    1.03600   1.04102   1.07467   1.09287   1.10328
 Alpha virt. eigenvalues --    1.13568   1.47440   1.50263   1.57276   1.62658
 Alpha virt. eigenvalues --    1.92597   1.99899   2.12817   2.15345   2.16983
 Alpha virt. eigenvalues --    2.24397   2.31875   2.34760   2.45616   2.54898
 Alpha virt. eigenvalues --    2.59314   2.75332   2.86588   3.99940   4.36058
 Alpha virt. eigenvalues --    4.42056
          Condensed to atoms (all electrons):
               1          2          3          4          5          6
     1  C    4.951788   0.318708  -0.063523   0.388871   0.390148   0.374980
     2  N    0.318708   6.850159   0.318780  -0.037818  -0.035700  -0.058469
     3  C   -0.063523   0.318780   4.955430  -0.004303   0.005029  -0.002306
     4  H    0.388871  -0.037818  -0.004303   0.544567  -0.021165  -0.040092
     5  H    0.390148  -0.035700   0.005029  -0.021165   0.539023  -0.037333
     6  H    0.374980  -0.058469  -0.002306  -0.040092  -0.037333   0.634529
     7  H   -0.037880   0.330389  -0.039780   0.004951  -0.002437  -0.003812
     8  H    0.005026  -0.035758   0.390171   0.000089  -0.000171  -0.000280
     9  H   -0.002361  -0.058532   0.374862  -0.001446  -0.000281   0.010622
    10  H   -0.004144  -0.038074   0.388667   0.006072   0.000091  -0.001475
               7          8          9         10
     1  C   -0.037880   0.005026  -0.002361  -0.004144
     2  N    0.330389  -0.035758  -0.058532  -0.038074
     3  C   -0.039780   0.390171   0.374862   0.388667
     4  H    0.004951   0.000089  -0.001446   0.006072
     5  H   -0.002437  -0.000171  -0.000281   0.000091
     6  H   -0.003812  -0.000280   0.010622  -0.001475
     7  H    0.443624  -0.002528  -0.003968   0.005125
     8  H   -0.002528   0.539760  -0.037564  -0.021049
     9  H   -0.003968  -0.037564   0.635388  -0.040054
    10  H    0.005125  -0.021049  -0.040054   0.545170
 Mulliken charges:
               1
     1  C   -0.321615
     2  N   -0.553685
     3  C   -0.323028
     4  H    0.160273
     5  H    0.162796
     6  H    0.123635
     7  H    0.306315
     8  H    0.162303
     9  H    0.123334
    10  H    0.159671
 Sum of Mulliken charges =  -0.00000
 Mulliken charges with hydrogens summed into heavy atoms:
               1
     1  C    0.125089
     2  N   -0.247370
     3  C    0.122281
 Electronic spatial extent (au):  <R**2>=            203.7840
 Charge=              0.0000 electrons
 Dipole moment (field-independent basis, Debye):
    X=             -0.0060    Y=             -0.1288    Z=              1.0171  Tot=              1.0253
 Quadrupole moment (field-independent basis, Debye-Ang):
   XX=            -19.5845   YY=            -19.8581   ZZ=            -21.6775
   XY=             -0.0431   XZ=             -0.0172   YZ=              2.1102
 Traceless Quadrupole moment (field-independent basis, Debye-Ang):
   XX=              0.7889   YY=              0.5152   ZZ=             -1.3041
   XY=             -0.0431   XZ=             -0.0172   YZ=              2.1102
 Octapole moment (field-independent basis, Debye-Ang**2):
  XXX=              0.0378  YYY=              3.2436  ZZZ=              1.1313  XYY=             -0.0353
  XXY=              1.9631  XXZ=             -0.9678  XZZ=             -0.0038  YZZ=             -0.5580
  YYZ=              1.1515  XYZ=             -0.0143
 Hexadecapole moment (field-independent basis, Debye-Ang**3):
 XXXX=           -176.8480 YYYY=            -52.6405 ZZZZ=            -38.1014 XXXY=             -0.0344
 XXXZ=             -0.0130 YYYX=             -0.1173 YYYZ=              4.8206 ZZZX=             -0.0168
 ZZZY=              2.0473 XXYY=            -38.2551 XXZZ=            -37.2284 YYZZ=            -15.1487
 XXYZ=              0.3954 YYXZ=             -0.0356 ZZXY=             -0.0291
 N-N= 8.407332789816D+01 E-N=-4.811709776199D+02  KE= 1.337528243152D+02
 1\1\GINC-NODE86\SP\RwB97X\6-31G(d)\C2H7N1\YANZ\22-Sep-2023\0\\# 6-31g(
 d) wb97x\\tmpdir/M3_conf_1_22.gjf\\0,1\C,0,0.,0.,0.\N,0,1.4536,0.,0.\C
 ,0,2.02515,0.,1.33674\H,0,-0.38597,0.87404,0.54828\H,0,-0.35267,0.0347
 9,-1.03776\H,0,-0.40429,-0.92201,0.46392\H,0,1.82434,-0.78051,-0.53024
 \H,0,3.11779,0.03714,1.25269\H,0,1.76019,-0.92377,1.8896\H,0,1.67127,0
 .87264,1.90743\\Version=ES64L-G16RevA.03\State=1-A\HF=-135.1203702\RMS
 D=7.950e-09\Dipole=-0.0737354,-0.3792836,0.1158316\Quadrupole=0.327136
 8,-0.2324076,-0.0947292,-0.9559123,0.4212378,1.4148145\PG=C01 [X(C2H7N
 1)]\\@


 IT IS A QUALITY OF REVOLUTIONS NOT TO GO BY OLD LINES OR OLD LAWS,
 BUT TO BREAK UP BOTH, AND MAKE NEW ONES.
                                              -- A. LINCOLN (1848)
 Job cpu time:       0 days  0 hours  0 minutes 19.9 seconds.
 Elapsed time:       0 days  0 hours  0 minutes  5.1 seconds.
 File lengths (MBytes):  RWF=      6 Int=      0 D2E=      0 Chk=      1 Scr=      1
 Normal termination of Gaussian 16 at Fri Sep 22 11:12:31 2023.
