 Entering Gaussian System, Link 0=g16
 Initial command:
 /share/apps/gaussian/g16/l1.exe "/tmp/55478.mgr/Gau-304656.inp" -scrdir="/tmp/55478.mgr/"
 Entering Link 1 = /share/apps/gaussian/g16/l1.exe PID=    304657.
  
 Copyright (c) 1988,1990,1992,1993,1995,1998,2003,2009,2016,
            Gaussian, Inc.  All Rights Reserved.
  
 This is part of the Gaussian(R) 16 program.  It is based on
 the Gaussian(R) 09 system (copyright 2009, Gaussian, Inc.),
 the Gaussian(R) 03 system (copyright 2003, Gaussian, Inc.),
 the Gaussian(R) 98 system (copyright 1998, Gaussian, Inc.),
 the Gaussian(R) 94 system (copyright 1995, Gaussian, Inc.),
 the Gaussian 92(TM) system (copyright 1992, Gaussian, Inc.),
 the Gaussian 90(TM) system (copyright 1990, Gaussian, Inc.),
 the Gaussian 88(TM) system (copyright 1988, Gaussian, Inc.),
 the Gaussian 86(TM) system (copyright 1986, Carnegie Mellon
 University), and the Gaussian 82(TM) system (copyright 1983,
 Carnegie Mellon University). Gaussian is a federally registered
 trademark of Gaussian, Inc.
  
 This software contains proprietary and confidential information,
 including trade secrets, belonging to Gaussian, Inc.
  
 This software is provided under written license and may be
 used, copied, transmitted, or stored only in accord with that
 written license.
  
 The following legend is applicable only to US Government
 contracts under FAR:
  
                    RESTRICTED RIGHTS LEGEND
  
 Use, reproduction and disclosure by the US Government is
 subject to restrictions as set forth in subparagraphs (a)
 and (c) of the Commercial Computer Software - Restricted
 Rights clause in FAR 52.227-19.
  
 Gaussian, Inc.
 340 Quinnipiac St., Bldg. 40, Wallingford CT 06492
  
  
 ---------------------------------------------------------------
 Warning -- This program may not be used in any manner that
 competes with the business of Gaussian, Inc. or will provide
 assistance to any competitor of Gaussian, Inc.  The licensee
 of this program is prohibited from giving any competitor of
 Gaussian, Inc. access to this program.  By using this program,
 the user acknowledges that Gaussian, Inc. is engaged in the
 business of creating and licensing software in the field of
 computational chemistry and represents and warrants to the
 licensee that it is not a competitor of Gaussian, Inc. and that
 it will not use this program in any manner prohibited above.
 ---------------------------------------------------------------
  

 Cite this work as:
 Gaussian 16, Revision A.03,
 M. J. Frisch, G. W. Trucks, H. B. Schlegel, G. E. Scuseria, 
 M. A. Robb, J. R. Cheeseman, G. Scalmani, V. Barone, 
 G. A. Petersson, H. Nakatsuji, X. Li, M. Caricato, A. V. Marenich, 
 J. Bloino, B. G. Janesko, R. Gomperts, B. Mennucci, H. P. Hratchian, 
 J. V. Ortiz, A. F. Izmaylov, J. L. Sonnenberg, D. Williams-Young, 
 F. Ding, F. Lipparini, F. Egidi, J. Goings, B. Peng, A. Petrone, 
 T. Henderson, D. Ranasinghe, V. G. Zakrzewski, J. Gao, N. Rega, 
 G. Zheng, W. Liang, M. Hada, M. Ehara, K. Toyota, R. Fukuda, 
 J. Hasegawa, M. Ishida, T. Nakajima, Y. Honda, O. Kitao, H. Nakai, 
 T. Vreven, K. Throssell, J. A. Montgomery, Jr., J. E. Peralta, 
 F. Ogliaro, M. J. Bearpark, J. J. Heyd, E. N. Brothers, K. N. Kudin, 
 V. N. Staroverov, T. A. Keith, R. Kobayashi, J. Normand, 
 K. Raghavachari, A. P. Rendell, J. C. Burant, S. S. Iyengar, 
 J. Tomasi, M. Cossi, J. M. Millam, M. Klene, C. Adamo, R. Cammi, 
 J. W. Ochterski, R. L. Martin, K. Morokuma, O. Farkas, 
 J. B. Foresman, and D. J. Fox, Gaussian, Inc., Wallingford CT, 2016.
 
 ******************************************
 Gaussian 16:  ES64L-G16RevA.03 25-Dec-2016
                22-Sep-2023 
 ******************************************
 %nprocshared=4
 Will use up to    4 processors via shared memory.
 %mem=4GB
 ----------------
 # 6-31g(d) wb97x
 ----------------
 1/38=1,172=1/1;
 2/12=2,17=6,18=5,40=1/2;
 3/5=1,6=6,7=1,11=2,25=1,30=1,74=-57/1,2,3;
 4//1;
 5/5=2,38=5/2;
 6/7=2,8=2,9=2,10=2,28=1/1;
 99/5=1,9=1/99;
 -----------------------
 tmpdir/M3_conf_0_38.gjf
 -----------------------
 Symbolic Z-matrix:
 Charge =  0 Multiplicity = 1
 N                     0.        0.        0. 
 C                     1.4538    0.        0. 
 C                     1.8708    0.        1.46293 
 H                    -0.34861  -0.80907   0.5097 
 H                    -0.37107   0.03227  -0.9429 
 H                     1.80608   0.8978   -0.52169 
 H                     1.85798  -0.88243  -0.53589 
 H                     2.96342  -0.03547   1.53398 
 H                     1.5292    0.94044   1.93703 
 H                     1.43372  -0.91214   2.00149 
 
                          Input orientation:                          
 ---------------------------------------------------------------------
 Center     Atomic      Atomic             Coordinates (Angstroms)
 Number     Number       Type             X           Y           Z
 ---------------------------------------------------------------------
      1          7           0        0.000000    0.000000    0.000000
      2          6           0        1.453800    0.000000    0.000000
      3          6           0        1.870800    0.000000    1.462930
      4          1           0       -0.348610   -0.809070    0.509700
      5          1           0       -0.371070    0.032270   -0.942900
      6          1           0        1.806080    0.897800   -0.521690
      7          1           0        1.857980   -0.882430   -0.535890
      8          1           0        2.963420   -0.035470    1.533980
      9          1           0        1.529200    0.940440    1.937030
     10          1           0        1.433720   -0.912140    2.001490
 ---------------------------------------------------------------------
                    Distance matrix (angstroms):
                    1          2          3          4          5
     1  N    0.000000
     2  C    1.453800   0.000000
     3  C    2.374880   1.521201   0.000000
     4  H    1.017800   2.040360   2.547356   0.000000
     5  H    1.013802   2.054325   3.288623   1.678810   0.000000
     6  H    2.083298   1.096497   2.179209   2.935960   2.380450
     7  H    2.125547   1.108703   2.184978   2.442883   2.443562
     8  H    3.337096   2.152511   1.095502   3.552063   4.154317
     9  H    2.641016   2.154576   1.107199   2.936703   3.567884
    10  H    2.625550   2.199628   1.145899   2.326534   3.580309
                    6          7          8          9         10
     6  H    0.000000
     7  H    1.781043   0.000000
     8  H    2.536968   2.494735   0.000000
     9  H    2.474628   3.089706   1.780965   0.000000
    10  H    3.127455   2.572776   1.824033   1.856158   0.000000
 Stoichiometry    C2H7N
 Framework group  C1[X(C2H7N)]
 Deg. of freedom    24
 Full point group                 C1      NOp   1
 Largest Abelian subgroup         C1      NOp   1
 Largest concise Abelian subgroup C1      NOp   1
                         Standard orientation:                         
 ---------------------------------------------------------------------
 Center     Atomic      Atomic             Coordinates (Angstroms)
 Number     Number       Type             X           Y           Z
 ---------------------------------------------------------------------
      1          7           0        1.160887   -0.330785   -0.114747
      2          6           0        0.054033    0.595339    0.060470
      3          6           0       -1.210994   -0.244373   -0.032493
      4          1           0        1.119388   -1.061445    0.592594
      5          1           0        2.053195    0.150187   -0.099039
      6          1           0        0.097958    1.350936   -0.732909
      7          1           0        0.118732    1.123065    1.033374
      8          1           0       -2.087865    0.392571    0.127278
      9          1           0       -1.284982   -0.676693   -1.049112
     10          1           0       -1.200872   -1.068925    0.763181
 ---------------------------------------------------------------------
 Rotational constants (GHZ):          30.7393999           9.4588305           8.1384713
 Standard basis: 6-31G(d) (6D, 7F)
 There are    59 symmetry adapted cartesian basis functions of A   symmetry.
 There are    59 symmetry adapted basis functions of A   symmetry.
    59 basis functions,   112 primitive gaussians,    59 cartesian basis functions
    13 alpha electrons       13 beta electrons
       nuclear repulsion energy        83.3002932801 Hartrees.
 NAtoms=   10 NActive=   10 NUniq=   10 SFac= 1.00D+00 NAtFMM=   60 NAOKFM=F Big=F
 Integral buffers will be    131072 words long.
 Raffenetti 2 integral format.
 Two-electron integral symmetry is turned on.
 One-electron integrals computed using PRISM.
 NBasis=    59 RedAO= T EigKep=  5.82D-03  NBF=    59
 NBsUse=    59 1.00D-06 EigRej= -1.00D+00 NBFU=    59
 ExpMin= 1.61D-01 ExpMax= 4.17D+03 ExpMxC= 6.27D+02 IAcc=3 IRadAn=         5 AccDes= 0.00D+00
 Harris functional with IExCor= 4538 and IRadAn=       5 diagonalized for initial guess.
 HarFok:  IExCor= 4538 AccDes= 0.00D+00 IRadAn=         5 IDoV= 1 UseB2=F ITyADJ=14
 ICtDFT=  3500011 ScaDFX=  1.000000  1.000000  1.000000  1.000000
 FoFCou: FMM=F IPFlag=           0 FMFlag=      100000 FMFlg1=           0
         NFxFlg=           0 DoJE=T BraDBF=F KetDBF=T FulRan=T
         wScrn=  0.000000 ICntrl=       500 IOpCl=  0 I1Cent=   200000004 NGrid=           0
         NMat0=    1 NMatS0=      1 NMatT0=    0 NMatD0=    1 NMtDS0=    0 NMtDT0=    0
 Petite list used in FoFCou.
 Keep R1 ints in memory in canonical form, NReq=6654843.
 Requested convergence on RMS density matrix=1.00D-08 within 128 cycles.
 Requested convergence on MAX density matrix=1.00D-06.
 Requested convergence on             energy=1.00D-06.
 No special actions if energy rises.
 Integral accuracy reduced to 1.0D-05 until final iterations.
 Initial convergence to 1.0D-05 achieved.  Increase integral accuracy.
 SCF Done:  E(RwB97X) =  -135.126258114     A.U. after   12 cycles
            NFock= 12  Conv=0.98D-08     -V/T= 2.0104

 **********************************************************************

            Population analysis using the SCF density.

 **********************************************************************

 Orbital symmetries:
       Occupied  (A) (A) (A) (A) (A) (A) (A) (A) (A) (A) (A) (A)
                 (A)
       Virtual   (A) (A) (A) (A) (A) (A) (A) (A) (A) (A) (A) (A)
                 (A) (A) (A) (A) (A) (A) (A) (A) (A) (A) (A) (A)
                 (A) (A) (A) (A) (A) (A) (A) (A) (A) (A) (A) (A)
                 (A) (A) (A) (A) (A) (A) (A) (A) (A) (A)
 The electronic state is 1-A.
 Alpha  occ. eigenvalues --  -14.37705 -10.28472 -10.25863  -1.00239  -0.84639
 Alpha  occ. eigenvalues --   -0.71653  -0.60058  -0.56641  -0.52369  -0.46386
 Alpha  occ. eigenvalues --   -0.45659  -0.44574  -0.32293
 Alpha virt. eigenvalues --    0.18189   0.22265   0.23287   0.26065   0.27024
 Alpha virt. eigenvalues --    0.29325   0.30100   0.33878   0.35432   0.63521
 Alpha virt. eigenvalues --    0.67422   0.68064   0.69001   0.79055   0.79370
 Alpha virt. eigenvalues --    0.85214   0.92351   0.96387   0.98929   1.00005
 Alpha virt. eigenvalues --    1.02602   1.06106   1.06832   1.08407   1.11889
 Alpha virt. eigenvalues --    1.16466   1.43732   1.56205   1.59194   1.68382
 Alpha virt. eigenvalues --    1.89491   1.99143   2.04842   2.09129   2.18201
 Alpha virt. eigenvalues --    2.29210   2.31371   2.41574   2.45662   2.47699
 Alpha virt. eigenvalues --    2.62715   2.68898   2.85130   3.90861   4.31060
 Alpha virt. eigenvalues --    4.54290
          Condensed to atoms (all electrons):
               1          2          3          4          5          6
     1  N    6.953301   0.307714  -0.075411   0.324025   0.324961  -0.042466
     2  C    0.307714   4.856611   0.368355  -0.036670  -0.033592   0.391520
     3  C   -0.075411   0.368355   5.107255  -0.004942   0.006367  -0.026735
     4  H    0.324025  -0.036670  -0.004942   0.434580  -0.026523   0.005649
     5  H    0.324961  -0.033592   0.006367  -0.026523   0.426858  -0.002411
     6  H   -0.042466   0.391520  -0.026735   0.005649  -0.002411   0.569515
     7  H   -0.053874   0.391055  -0.046053  -0.003633  -0.002415  -0.045223
     8  H    0.004793  -0.032175   0.370869  -0.000177  -0.000225  -0.002241
     9  H    0.003274  -0.033285   0.380208  -0.000505  -0.000080  -0.005687
    10  H   -0.005738  -0.034796   0.380869   0.006590   0.000068   0.004098
               7          8          9         10
     1  N   -0.053874   0.004793   0.003274  -0.005738
     2  C    0.391055  -0.032175  -0.033285  -0.034796
     3  C   -0.046053   0.370869   0.380208   0.380869
     4  H   -0.003633  -0.000177  -0.000505   0.006590
     5  H   -0.002415  -0.000225  -0.000080   0.000068
     6  H   -0.045223  -0.002241  -0.005687   0.004098
     7  H    0.636200   0.000597   0.005007  -0.004636
     8  H    0.000597   0.556808  -0.024934  -0.025643
     9  H    0.005007  -0.024934   0.527111  -0.024275
    10  H   -0.004636  -0.025643  -0.024275   0.568417
 Mulliken charges:
               1
     1  N   -0.740579
     2  C   -0.144736
     3  C   -0.460780
     4  H    0.301608
     5  H    0.306992
     6  H    0.153981
     7  H    0.122975
     8  H    0.152327
     9  H    0.173166
    10  H    0.135046
 Sum of Mulliken charges =  -0.00000
 Mulliken charges with hydrogens summed into heavy atoms:
               1
     1  N   -0.131979
     2  C    0.132220
     3  C   -0.000241
 Electronic spatial extent (au):  <R**2>=            202.9545
 Charge=             -0.0000 electrons
 Dipole moment (field-independent basis, Debye):
    X=              0.2756    Y=              0.5446    Z=              1.1078  Tot=              1.2649
 Quadrupole moment (field-independent basis, Debye-Ang):
   XX=            -19.1400   YY=            -20.2856   ZZ=            -21.1495
   XY=              0.6305   XZ=              1.5462   YZ=             -1.8031
 Traceless Quadrupole moment (field-independent basis, Debye-Ang):
   XX=              1.0517   YY=             -0.0939   ZZ=             -0.9578
   XY=              0.6305   XZ=              1.5462   YZ=             -1.8031
 Octapole moment (field-independent basis, Debye-Ang**2):
  XXX=              9.8679  YYY=             -1.0524  ZZZ=              0.5850  XYY=              1.5621
  XXY=              1.9482  XXZ=              1.3232  XZZ=              0.0130  YZZ=             -0.2338
  YYZ=              1.3202  XYZ=             -1.8834
 Hexadecapole moment (field-independent basis, Debye-Ang**3):
 XXXX=           -150.2852 YYYY=            -63.2461 ZZZZ=            -37.4062 XXXY=             -0.3436
 XXXZ=              1.5404 YYYX=             -1.7321 YYYZ=             -3.5631 ZZZX=              2.4745
 ZZZY=             -1.4503 XXYY=            -37.5926 XXZZ=            -35.2965 YYZZ=            -15.6000
 XXYZ=             -2.1652 YYXZ=              1.4769 ZZXY=              0.7702
 N-N= 8.330029328008D+01 E-N=-4.797581200797D+02  KE= 1.337393481287D+02
 1\1\GINC-NODE86\SP\RwB97X\6-31G(d)\C2H7N1\YANZ\22-Sep-2023\0\\# 6-31g(
 d) wb97x\\tmpdir/M3_conf_0_38.gjf\\0,1\N,0,0.,0.,0.\C,0,1.4538,0.,0.\C
 ,0,1.8708,0.,1.46293\H,0,-0.34861,-0.80907,0.5097\H,0,-0.37107,0.03227
 ,-0.9429\H,0,1.80608,0.8978,-0.52169\H,0,1.85798,-0.88243,-0.53589\H,0
 ,2.96342,-0.03547,1.53398\H,0,1.5292,0.94044,1.93703\H,0,1.43372,-0.91
 214,2.00149\\Version=ES64L-G16RevA.03\State=1-A\HF=-135.1262581\RMSD=9
 .782e-09\Dipole=0.1064578,-0.4009898,-0.2747958\Quadrupole=-0.4569851,
 -0.2306389,0.6876239,1.7116451,0.7054668,-0.3242503\PG=C01 [X(C2H7N1)]
 \\@


 CHEMISTRY BEGAN BY SAYING IT WOULD CHANGE THE BASER
 METALS INTO GOLD.  BY NOT DOING THAT IT HAS DONE MUCH
 GREATER THINGS.  --  RALPH WALDO EMERSON
 Job cpu time:       0 days  0 hours  0 minutes 18.3 seconds.
 Elapsed time:       0 days  0 hours  0 minutes  4.7 seconds.
 File lengths (MBytes):  RWF=      6 Int=      0 D2E=      0 Chk=      1 Scr=      1
 Normal termination of Gaussian 16 at Fri Sep 22 11:10:48 2023.
