 Entering Gaussian System, Link 0=g16
 Initial command:
 /share/apps/gaussian/g16/l1.exe "/tmp/55478.mgr/Gau-303414.inp" -scrdir="/tmp/55478.mgr/"
 Entering Link 1 = /share/apps/gaussian/g16/l1.exe PID=    303420.
  
 Copyright (c) 1988,1990,1992,1993,1995,1998,2003,2009,2016,
            Gaussian, Inc.  All Rights Reserved.
  
 This is part of the Gaussian(R) 16 program.  It is based on
 the Gaussian(R) 09 system (copyright 2009, Gaussian, Inc.),
 the Gaussian(R) 03 system (copyright 2003, Gaussian, Inc.),
 the Gaussian(R) 98 system (copyright 1998, Gaussian, Inc.),
 the Gaussian(R) 94 system (copyright 1995, Gaussian, Inc.),
 the Gaussian 92(TM) system (copyright 1992, Gaussian, Inc.),
 the Gaussian 90(TM) system (copyright 1990, Gaussian, Inc.),
 the Gaussian 88(TM) system (copyright 1988, Gaussian, Inc.),
 the Gaussian 86(TM) system (copyright 1986, Carnegie Mellon
 University), and the Gaussian 82(TM) system (copyright 1983,
 Carnegie Mellon University). Gaussian is a federally registered
 trademark of Gaussian, Inc.
  
 This software contains proprietary and confidential information,
 including trade secrets, belonging to Gaussian, Inc.
  
 This software is provided under written license and may be
 used, copied, transmitted, or stored only in accord with that
 written license.
  
 The following legend is applicable only to US Government
 contracts under FAR:
  
                    RESTRICTED RIGHTS LEGEND
  
 Use, reproduction and disclosure by the US Government is
 subject to restrictions as set forth in subparagraphs (a)
 and (c) of the Commercial Computer Software - Restricted
 Rights clause in FAR 52.227-19.
  
 Gaussian, Inc.
 340 Quinnipiac St., Bldg. 40, Wallingford CT 06492
  
  
 ---------------------------------------------------------------
 Warning -- This program may not be used in any manner that
 competes with the business of Gaussian, Inc. or will provide
 assistance to any competitor of Gaussian, Inc.  The licensee
 of this program is prohibited from giving any competitor of
 Gaussian, Inc. access to this program.  By using this program,
 the user acknowledges that Gaussian, Inc. is engaged in the
 business of creating and licensing software in the field of
 computational chemistry and represents and warrants to the
 licensee that it is not a competitor of Gaussian, Inc. and that
 it will not use this program in any manner prohibited above.
 ---------------------------------------------------------------
  

 Cite this work as:
 Gaussian 16, Revision A.03,
 M. J. Frisch, G. W. Trucks, H. B. Schlegel, G. E. Scuseria, 
 M. A. Robb, J. R. Cheeseman, G. Scalmani, V. Barone, 
 G. A. Petersson, H. Nakatsuji, X. Li, M. Caricato, A. V. Marenich, 
 J. Bloino, B. G. Janesko, R. Gomperts, B. Mennucci, H. P. Hratchian, 
 J. V. Ortiz, A. F. Izmaylov, J. L. Sonnenberg, D. Williams-Young, 
 F. Ding, F. Lipparini, F. Egidi, J. Goings, B. Peng, A. Petrone, 
 T. Henderson, D. Ranasinghe, V. G. Zakrzewski, J. Gao, N. Rega, 
 G. Zheng, W. Liang, M. Hada, M. Ehara, K. Toyota, R. Fukuda, 
 J. Hasegawa, M. Ishida, T. Nakajima, Y. Honda, O. Kitao, H. Nakai, 
 T. Vreven, K. Throssell, J. A. Montgomery, Jr., J. E. Peralta, 
 F. Ogliaro, M. J. Bearpark, J. J. Heyd, E. N. Brothers, K. N. Kudin, 
 V. N. Staroverov, T. A. Keith, R. Kobayashi, J. Normand, 
 K. Raghavachari, A. P. Rendell, J. C. Burant, S. S. Iyengar, 
 J. Tomasi, M. Cossi, J. M. Millam, M. Klene, C. Adamo, R. Cammi, 
 J. W. Ochterski, R. L. Martin, K. Morokuma, O. Farkas, 
 J. B. Foresman, and D. J. Fox, Gaussian, Inc., Wallingford CT, 2016.
 
 ******************************************
 Gaussian 16:  ES64L-G16RevA.03 25-Dec-2016
                22-Sep-2023 
 ******************************************
 %nprocshared=4
 Will use up to    4 processors via shared memory.
 %mem=4GB
 ----------------
 # 6-31g(d) wb97x
 ----------------
 1/38=1,172=1/1;
 2/12=2,17=6,18=5,40=1/2;
 3/5=1,6=6,7=1,11=2,25=1,30=1,74=-57/1,2,3;
 4//1;
 5/5=2,38=5/2;
 6/7=2,8=2,9=2,10=2,28=1/1;
 99/5=1,9=1/99;
 -----------------------
 tmpdir/M3_conf_0_12.gjf
 -----------------------
 Symbolic Z-matrix:
 Charge =  0 Multiplicity = 1
 C                     0.        0.        0. 
 N                     1.4583    0.        0. 
 H                    -0.38597   0.       -1.03177 
 H                    -0.35267  -0.8976    0.52199 
 H                    -0.40429   0.88295   0.53453 
 H                     1.82904  -0.03441   0.94295 
 H                     1.80694   0.81013  -0.50819 
 
                          Input orientation:                          
 ---------------------------------------------------------------------
 Center     Atomic      Atomic             Coordinates (Angstroms)
 Number     Number       Type             X           Y           Z
 ---------------------------------------------------------------------
      1          6           0        0.000000    0.000000    0.000000
      2          7           0        1.458300    0.000000    0.000000
      3          1           0       -0.385970    0.000000   -1.031770
      4          1           0       -0.352670   -0.897600    0.521990
      5          1           0       -0.404290    0.882950    0.534530
      6          1           0        1.829040   -0.034410    0.942950
      7          1           0        1.806940    0.810130   -0.508190
 ---------------------------------------------------------------------
                    Distance matrix (angstroms):
                    1          2          3          4          5
     1  C    0.000000
     2  N    1.458300   0.000000
     3  H    1.101600   2.113263   0.000000
     4  H    1.096602   2.087528   1.794705   0.000000
     5  H    1.108501   2.129452   1.798119   1.781342   0.000000
     6  H    2.058088   1.013798   2.967654   2.383729   2.448697
     7  H    2.044407   1.017899   2.395684   2.939648   2.445834
                    6          7
     6  H    0.000000
     7  H    1.679150   0.000000
 Stoichiometry    CH5N
 Framework group  C1[X(CH5N)]
 Deg. of freedom    15
 Full point group                 C1      NOp   1
 Largest Abelian subgroup         C1      NOp   1
 Largest concise Abelian subgroup C1      NOp   1
                         Standard orientation:                         
 ---------------------------------------------------------------------
 Center     Atomic      Atomic             Coordinates (Angstroms)
 Number     Number       Type             X           Y           Z
 ---------------------------------------------------------------------
      1          6           0       -0.707258    0.000568    0.011157
      2          7           0        0.745698    0.001985   -0.113569
      3          1           0       -1.136360    0.896709   -0.464579
      4          1           0       -1.102374   -0.897620   -0.478410
      5          1           0       -1.021793   -0.027253    1.073732
      6          1           0        1.153251   -0.834026    0.289882
      7          1           0        1.130937    0.844884    0.307418
 ---------------------------------------------------------------------
 Rotational constants (GHZ):         101.5192574          23.0535559          21.9433165
 Standard basis: 6-31G(d) (6D, 7F)
 There are    40 symmetry adapted cartesian basis functions of A   symmetry.
 There are    40 symmetry adapted basis functions of A   symmetry.
    40 basis functions,    76 primitive gaussians,    40 cartesian basis functions
     9 alpha electrons        9 beta electrons
       nuclear repulsion energy        41.9731193333 Hartrees.
 NAtoms=    7 NActive=    7 NUniq=    7 SFac= 1.00D+00 NAtFMM=   60 NAOKFM=F Big=F
 Integral buffers will be    131072 words long.
 Raffenetti 2 integral format.
 Two-electron integral symmetry is turned on.
 One-electron integrals computed using PRISM.
 NBasis=    40 RedAO= T EigKep=  9.13D-03  NBF=    40
 NBsUse=    40 1.00D-06 EigRej= -1.00D+00 NBFU=    40
 ExpMin= 1.61D-01 ExpMax= 4.17D+03 ExpMxC= 6.27D+02 IAcc=3 IRadAn=         5 AccDes= 0.00D+00
 Harris functional with IExCor= 4538 and IRadAn=       5 diagonalized for initial guess.
 HarFok:  IExCor= 4538 AccDes= 0.00D+00 IRadAn=         5 IDoV= 1 UseB2=F ITyADJ=14
 ICtDFT=  3500011 ScaDFX=  1.000000  1.000000  1.000000  1.000000
 FoFCou: FMM=F IPFlag=           0 FMFlag=      100000 FMFlg1=           0
         NFxFlg=           0 DoJE=T BraDBF=F KetDBF=T FulRan=T
         wScrn=  0.000000 ICntrl=       500 IOpCl=  0 I1Cent=   200000004 NGrid=           0
         NMat0=    1 NMatS0=      1 NMatT0=    0 NMatD0=    1 NMtDS0=    0 NMtDT0=    0
 Petite list used in FoFCou.
 Keep R1 ints in memory in canonical form, NReq=4125853.
 Requested convergence on RMS density matrix=1.00D-08 within 128 cycles.
 Requested convergence on MAX density matrix=1.00D-06.
 Requested convergence on             energy=1.00D-06.
 No special actions if energy rises.
 Integral accuracy reduced to 1.0D-05 until final iterations.
 Initial convergence to 1.0D-05 achieved.  Increase integral accuracy.
 SCF Done:  E(RwB97X) =  -95.8215807612     A.U. after   13 cycles
            NFock= 13  Conv=0.91D-08     -V/T= 2.0101

 **********************************************************************

            Population analysis using the SCF density.

 **********************************************************************

 Orbital symmetries:
       Occupied  (A) (A) (A) (A) (A) (A) (A) (A) (A)
       Virtual   (A) (A) (A) (A) (A) (A) (A) (A) (A) (A) (A) (A)
                 (A) (A) (A) (A) (A) (A) (A) (A) (A) (A) (A) (A)
                 (A) (A) (A) (A) (A) (A) (A)
 The electronic state is 1-A.
 Alpha  occ. eigenvalues --  -14.37975 -10.28088  -0.99374  -0.77407  -0.60137
 Alpha  occ. eigenvalues --   -0.53504  -0.50488  -0.47072  -0.32197
 Alpha virt. eigenvalues --    0.18456   0.24203   0.25527   0.27551   0.29044
 Alpha virt. eigenvalues --    0.34075   0.66013   0.67708   0.69723   0.84844
 Alpha virt. eigenvalues --    0.87359   0.89531   0.97727   1.02572   1.04774
 Alpha virt. eigenvalues --    1.05272   1.08709   1.15785   1.48221   1.62682
 Alpha virt. eigenvalues --    1.64868   2.05604   2.14012   2.15961   2.33304
 Alpha virt. eigenvalues --    2.42247   2.45149   2.55954   2.77106   3.88840
 Alpha virt. eigenvalues --    4.37199
          Condensed to atoms (all electrons):
               1          2          3          4          5          6
     1  C    4.928758   0.307153   0.390531   0.391024   0.386668  -0.036674
     2  N    0.307153   6.900296  -0.035618  -0.038291  -0.055250   0.332382
     3  H    0.390531  -0.035618   0.540544  -0.021739  -0.037774   0.004585
     4  H    0.391024  -0.038291  -0.021739   0.543652  -0.039003  -0.003297
     5  H    0.386668  -0.055250  -0.037774  -0.039003   0.623286  -0.002943
     6  H   -0.036674   0.332382   0.004585  -0.003297  -0.002943   0.423646
     7  H   -0.038878   0.332007  -0.003337   0.004985  -0.003026  -0.027724
               7
     1  C   -0.038878
     2  N    0.332007
     3  H   -0.003337
     4  H    0.004985
     5  H   -0.003026
     6  H   -0.027724
     7  H    0.428257
 Mulliken charges:
               1
     1  C   -0.328583
     2  N   -0.742678
     3  H    0.162808
     4  H    0.162668
     5  H    0.128042
     6  H    0.310026
     7  H    0.307716
 Sum of Mulliken charges =   0.00000
 Mulliken charges with hydrogens summed into heavy atoms:
               1
     1  C    0.124936
     2  N   -0.124936
 Electronic spatial extent (au):  <R**2>=             94.5567
 Charge=              0.0000 electrons
 Dipole moment (field-independent basis, Debye):
    X=             -0.1710    Y=             -0.0149    Z=              1.3615  Tot=              1.3722
 Quadrupole moment (field-independent basis, Debye-Ang):
   XX=            -13.6080   YY=            -12.1347   ZZ=            -15.2673
   XY=             -0.0736   XZ=              2.0584   YZ=              0.0217
 Traceless Quadrupole moment (field-independent basis, Debye-Ang):
   XX=              0.0620   YY=              1.5353   ZZ=             -1.5973
   XY=             -0.0736   XZ=              2.0584   YZ=              0.0217
 Octapole moment (field-independent basis, Debye-Ang**2):
  XXX=              3.2939  YYY=              0.0102  ZZZ=              1.5547  XYY=              2.1563
  XXY=             -0.0405  XXZ=              1.8953  XZZ=             -0.4210  YZZ=             -0.0221
  YYZ=              0.2980  XYZ=              0.0616
 Hexadecapole moment (field-independent basis, Debye-Ang**3):
 XXXX=            -72.7308 YYYY=            -22.4843 ZZZZ=            -23.3537 XXXY=             -0.2854
 XXXZ=              3.8048 YYYX=             -0.0797 YYYZ=              0.0541 ZZZX=              1.5283
 ZZZY=              0.0086 XXYY=            -13.5044 XXZZ=            -16.9172 YYZZ=             -7.6877
 XXYZ=             -0.0264 YYXZ=              1.8949 ZZXY=              0.0081
 N-N= 4.197311933332D+01 E-N=-3.063719504728D+02  KE= 9.486015455613D+01
 1\1\GINC-NODE86\SP\RwB97X\6-31G(d)\C1H5N1\YANZ\22-Sep-2023\0\\# 6-31g(
 d) wb97x\\tmpdir/M3_conf_0_12.gjf\\0,1\C,0,0.,0.,0.\N,0,1.4583,0.,0.\H
 ,0,-0.38597,0.,-1.03177\H,0,-0.35267,-0.8976,0.52199\H,0,-0.40429,0.88
 295,0.53453\H,0,1.82904,-0.03441,0.94295\H,0,1.80694,0.81013,-0.50819\
 \Version=ES64L-G16RevA.03\State=1-A\HF=-95.8215808\RMSD=9.066e-09\Dipo
 le=-0.1128341,0.4558696,0.2663126\Quadrupole=-0.2238343,-0.4047474,0.6
 285816,1.3746464,0.8458995,-0.8906987\PG=C01 [X(C1H5N1)]\\@


 ACHIEVEMENT--  THE MAN WHO ROWS THE BOAT GENERALLY 
                DOESN'T HAVE TIME TO ROCK IT.

                   -- FROM THE BACK OF A SUGAR PACKET
 Job cpu time:       0 days  0 hours  0 minutes 11.8 seconds.
 Elapsed time:       0 days  0 hours  0 minutes  3.1 seconds.
 File lengths (MBytes):  RWF=      6 Int=      0 D2E=      0 Chk=      1 Scr=      1
 Normal termination of Gaussian 16 at Fri Sep 22 11:10:29 2023.
