 Entering Gaussian System, Link 0=g16
 Initial command:
 /share/apps/gaussian/g16/l1.exe "/tmp/55478.mgr/Gau-311711.inp" -scrdir="/tmp/55478.mgr/"
 Entering Link 1 = /share/apps/gaussian/g16/l1.exe PID=    311712.
  
 Copyright (c) 1988,1990,1992,1993,1995,1998,2003,2009,2016,
            Gaussian, Inc.  All Rights Reserved.
  
 This is part of the Gaussian(R) 16 program.  It is based on
 the Gaussian(R) 09 system (copyright 2009, Gaussian, Inc.),
 the Gaussian(R) 03 system (copyright 2003, Gaussian, Inc.),
 the Gaussian(R) 98 system (copyright 1998, Gaussian, Inc.),
 the Gaussian(R) 94 system (copyright 1995, Gaussian, Inc.),
 the Gaussian 92(TM) system (copyright 1992, Gaussian, Inc.),
 the Gaussian 90(TM) system (copyright 1990, Gaussian, Inc.),
 the Gaussian 88(TM) system (copyright 1988, Gaussian, Inc.),
 the Gaussian 86(TM) system (copyright 1986, Carnegie Mellon
 University), and the Gaussian 82(TM) system (copyright 1983,
 Carnegie Mellon University). Gaussian is a federally registered
 trademark of Gaussian, Inc.
  
 This software contains proprietary and confidential information,
 including trade secrets, belonging to Gaussian, Inc.
  
 This software is provided under written license and may be
 used, copied, transmitted, or stored only in accord with that
 written license.
  
 The following legend is applicable only to US Government
 contracts under FAR:
  
                    RESTRICTED RIGHTS LEGEND
  
 Use, reproduction and disclosure by the US Government is
 subject to restrictions as set forth in subparagraphs (a)
 and (c) of the Commercial Computer Software - Restricted
 Rights clause in FAR 52.227-19.
  
 Gaussian, Inc.
 340 Quinnipiac St., Bldg. 40, Wallingford CT 06492
  
  
 ---------------------------------------------------------------
 Warning -- This program may not be used in any manner that
 competes with the business of Gaussian, Inc. or will provide
 assistance to any competitor of Gaussian, Inc.  The licensee
 of this program is prohibited from giving any competitor of
 Gaussian, Inc. access to this program.  By using this program,
 the user acknowledges that Gaussian, Inc. is engaged in the
 business of creating and licensing software in the field of
 computational chemistry and represents and warrants to the
 licensee that it is not a competitor of Gaussian, Inc. and that
 it will not use this program in any manner prohibited above.
 ---------------------------------------------------------------
  

 Cite this work as:
 Gaussian 16, Revision A.03,
 M. J. Frisch, G. W. Trucks, H. B. Schlegel, G. E. Scuseria, 
 M. A. Robb, J. R. Cheeseman, G. Scalmani, V. Barone, 
 G. A. Petersson, H. Nakatsuji, X. Li, M. Caricato, A. V. Marenich, 
 J. Bloino, B. G. Janesko, R. Gomperts, B. Mennucci, H. P. Hratchian, 
 J. V. Ortiz, A. F. Izmaylov, J. L. Sonnenberg, D. Williams-Young, 
 F. Ding, F. Lipparini, F. Egidi, J. Goings, B. Peng, A. Petrone, 
 T. Henderson, D. Ranasinghe, V. G. Zakrzewski, J. Gao, N. Rega, 
 G. Zheng, W. Liang, M. Hada, M. Ehara, K. Toyota, R. Fukuda, 
 J. Hasegawa, M. Ishida, T. Nakajima, Y. Honda, O. Kitao, H. Nakai, 
 T. Vreven, K. Throssell, J. A. Montgomery, Jr., J. E. Peralta, 
 F. Ogliaro, M. J. Bearpark, J. J. Heyd, E. N. Brothers, K. N. Kudin, 
 V. N. Staroverov, T. A. Keith, R. Kobayashi, J. Normand, 
 K. Raghavachari, A. P. Rendell, J. C. Burant, S. S. Iyengar, 
 J. Tomasi, M. Cossi, J. M. Millam, M. Klene, C. Adamo, R. Cammi, 
 J. W. Ochterski, R. L. Martin, K. Morokuma, O. Farkas, 
 J. B. Foresman, and D. J. Fox, Gaussian, Inc., Wallingford CT, 2016.
 
 ******************************************
 Gaussian 16:  ES64L-G16RevA.03 25-Dec-2016
                22-Sep-2023 
 ******************************************
 %nprocshared=4
 Will use up to    4 processors via shared memory.
 %mem=4GB
 ----------------
 # 6-31g(d) wb97x
 ----------------
 1/38=1,172=1/1;
 2/12=2,17=6,18=5,40=1/2;
 3/5=1,6=6,7=1,11=2,25=1,30=1,74=-57/1,2,3;
 4//1;
 5/5=2,38=5/2;
 6/7=2,8=2,9=2,10=2,28=1/1;
 99/5=1,9=1/99;
 -----------------------
 tmpdir/M3_conf_2_73.gjf
 -----------------------
 Symbolic Z-matrix:
 Charge =  0 Multiplicity = 1
 C                     0.        0.        0. 
 N                     1.3697    0.        0. 
 C                     2.22563   0.        1.12601 
 C                     1.82923  -0.51226   2.36107 
 C                     3.51493   0.49633   0.94843 
 H                     0.83571  -0.90611   2.49818 
 C                     2.73101  -0.51374   3.42816 
 H                     3.824     0.8983   -0.01419 
 C                     4.39993   0.48206   2.0176 
 C                     4.03937  -0.01066   3.26544 
 H                     5.40655   0.87099   1.87907 
 H                    -0.45796   0.02462  -0.98628 
 O                    -0.68317  -0.01008   1.01279 
 H                     1.81075   0.20414  -0.88424 
 H                     2.47612  -0.8992    4.4287 
 H                     4.75478  -0.0059    4.08991 
 
                          Input orientation:                          
 ---------------------------------------------------------------------
 Center     Atomic      Atomic             Coordinates (Angstroms)
 Number     Number       Type             X           Y           Z
 ---------------------------------------------------------------------
      1          6           0        0.000000    0.000000    0.000000
      2          7           0        1.369700    0.000000    0.000000
      3          6           0        2.225630    0.000000    1.126010
      4          6           0        1.829230   -0.512260    2.361070
      5          6           0        3.514930    0.496330    0.948430
      6          1           0        0.835710   -0.906110    2.498180
      7          6           0        2.731010   -0.513740    3.428160
      8          1           0        3.824000    0.898300   -0.014190
      9          6           0        4.399930    0.482060    2.017600
     10          6           0        4.039370   -0.010660    3.265440
     11          1           0        5.406550    0.870990    1.879070
     12          1           0       -0.457960    0.024620   -0.986280
     13          8           0       -0.683170   -0.010080    1.012790
     14          1           0        1.810750    0.204140   -0.884240
     15          1           0        2.476120   -0.899200    4.428700
     16          1           0        4.754780   -0.005900    4.089910
 ---------------------------------------------------------------------
                    Distance matrix (angstroms):
                    1          2          3          4          5
     1  C    0.000000
     2  N    1.369700   0.000000
     3  C    2.494259   1.414396   0.000000
     4  C    3.030370   2.459315   1.394603   0.000000
     5  C    3.674316   2.397473   1.392901   2.419585   0.000000
     6  H    2.785740   2.710550   2.153082   1.077497   3.398056
     7  C    4.413006   3.724161   2.412309   1.397101   2.789952
     8  H    3.928119   2.613567   2.159117   3.407440   1.087999
     9  C    4.864409   3.672245   2.398936   2.777615   1.388003
    10  C    5.194201   4.217861   2.804804   2.440124   2.429117
    11  H    5.789673   4.537145   3.382894   3.865608   2.141188
    12  H    1.087696   2.076944   3.415264   4.089527   4.444037
    13  O    1.221706   2.289131   2.911020   2.895202   4.229023
    14  H    2.025431   1.008999   2.062742   3.323493   2.519580
    15  H    5.152971   4.652538   3.432065   2.200746   3.890875
    16  H    6.271789   5.309064   3.896324   3.435714   3.414434
                    6          7          8          9         10
     6  H    0.000000
     7  C    2.147319   0.000000
     8  H    4.300904   3.877919   0.000000
     9  C    3.855079   2.401373   2.152469   0.000000
    10  C    3.413789   1.411160   3.410068   1.389202   0.000000
    11  H    4.943072   3.387576   2.467720   1.087999   2.137407
    12  H    3.831619   5.472352   4.476992   5.729890   6.189050
    13  O    2.305699   4.212400   4.711096   5.204782   5.232286
    14  H    3.691087   4.467552   2.300439   3.898944   4.715160
    15  H    2.533357   1.102102   4.978660   3.379693   2.141595
    16  H    4.324707   2.188940   4.304366   2.158354   1.091597
                   11         12         13         14         15
    11  H    0.000000
    12  H    6.581721   0.000000
    13  O    6.213808   2.012015   0.000000
    14  H    4.583705   2.278088   3.140740   0.000000
    15  H    4.268677   6.227702   4.737097   5.466938   0.000000
    16  H    2.466081   7.276077   6.248199   5.783909   2.470841
                   16
    16  H    0.000000
 Stoichiometry    C7H7NO
 Framework group  C1[X(C7H7NO)]
 Deg. of freedom    42
 Full point group                 C1      NOp   1
 Largest Abelian subgroup         C1      NOp   1
 Largest concise Abelian subgroup C1      NOp   1
                         Standard orientation:                         
 ---------------------------------------------------------------------
 Center     Atomic      Atomic             Coordinates (Angstroms)
 Number     Number       Type             X           Y           Z
 ---------------------------------------------------------------------
      1          6           0        2.600333   -0.215008   -0.000649
      2          7           0        1.431981   -0.885551   -0.248445
      3          6           0        0.114811   -0.386712   -0.119077
      4          6           0       -0.178735    0.972715   -0.222553
      5          6           0       -0.904239   -1.316327    0.074640
      6          1           0        0.606665    1.692810   -0.382581
      7          6           0       -1.504261    1.401538   -0.117758
      8          1           0       -0.675605   -2.376772    0.157845
      9          6           0       -2.216230   -0.873633    0.170838
     10          6           0       -2.547477    0.472615    0.082678
     11          1           0       -3.011946   -1.599775    0.323461
     12          1           0        3.504597   -0.802398   -0.143344
     13          8           0        2.655283    0.948137    0.369002
     14          1           0        1.511900   -1.885464   -0.357382
     15          1           0       -1.799274    2.461258   -0.185499
     16          1           0       -3.587685    0.792974    0.165881
 ---------------------------------------------------------------------
 Rotational constants (GHZ):           4.1346797           1.1413605           0.9103569
 Standard basis: 6-31G(d) (6D, 7F)
 There are   149 symmetry adapted cartesian basis functions of A   symmetry.
 There are   149 symmetry adapted basis functions of A   symmetry.
   149 basis functions,   280 primitive gaussians,   149 cartesian basis functions
    32 alpha electrons       32 beta electrons
       nuclear repulsion energy       404.0167591372 Hartrees.
 NAtoms=   16 NActive=   16 NUniq=   16 SFac= 1.00D+00 NAtFMM=   60 NAOKFM=F Big=F
 Integral buffers will be    131072 words long.
 Raffenetti 2 integral format.
 Two-electron integral symmetry is turned on.
 One-electron integrals computed using PRISM.
 NBasis=   149 RedAO= T EigKep=  4.69D-04  NBF=   149
 NBsUse=   149 1.00D-06 EigRej= -1.00D+00 NBFU=   149
 ExpMin= 1.61D-01 ExpMax= 5.48D+03 ExpMxC= 8.25D+02 IAcc=3 IRadAn=         5 AccDes= 0.00D+00
 Harris functional with IExCor= 4538 and IRadAn=       5 diagonalized for initial guess.
 HarFok:  IExCor= 4538 AccDes= 0.00D+00 IRadAn=         5 IDoV= 1 UseB2=F ITyADJ=14
 ICtDFT=  3500011 ScaDFX=  1.000000  1.000000  1.000000  1.000000
 FoFCou: FMM=F IPFlag=           0 FMFlag=      100000 FMFlg1=           0
         NFxFlg=           0 DoJE=T BraDBF=F KetDBF=T FulRan=T
         wScrn=  0.000000 ICntrl=       500 IOpCl=  0 I1Cent=   200000004 NGrid=           0
         NMat0=    1 NMatS0=      1 NMatT0=    0 NMatD0=    1 NMtDS0=    0 NMtDT0=    0
 Petite list used in FoFCou.
 Keep R1 ints in memory in canonical form, NReq=128793757.
 Requested convergence on RMS density matrix=1.00D-08 within 128 cycles.
 Requested convergence on MAX density matrix=1.00D-06.
 Requested convergence on             energy=1.00D-06.
 No special actions if energy rises.
 Integral accuracy reduced to 1.0D-05 until final iterations.
 Initial convergence to 1.0D-05 achieved.  Increase integral accuracy.
 SCF Done:  E(RwB97X) =  -400.831262778     A.U. after   16 cycles
            NFock= 16  Conv=0.70D-08     -V/T= 2.0096

 **********************************************************************

            Population analysis using the SCF density.

 **********************************************************************

 Orbital symmetries:
       Occupied  (A) (A) (A) (A) (A) (A) (A) (A) (A) (A) (A) (A)
                 (A) (A) (A) (A) (A) (A) (A) (A) (A) (A) (A) (A)
                 (A) (A) (A) (A) (A) (A) (A) (A)
       Virtual   (A) (A) (A) (A) (A) (A) (A) (A) (A) (A) (A) (A)
                 (A) (A) (A) (A) (A) (A) (A) (A) (A) (A) (A) (A)
                 (A) (A) (A) (A) (A) (A) (A) (A) (A) (A) (A) (A)
                 (A) (A) (A) (A) (A) (A) (A) (A) (A) (A) (A) (A)
                 (A) (A) (A) (A) (A) (A) (A) (A) (A) (A) (A) (A)
                 (A) (A) (A) (A) (A) (A) (A) (A) (A) (A) (A) (A)
                 (A) (A) (A) (A) (A) (A) (A) (A) (A) (A) (A) (A)
                 (A) (A) (A) (A) (A) (A) (A) (A) (A) (A) (A) (A)
                 (A) (A) (A) (A) (A) (A) (A) (A) (A) (A) (A) (A)
                 (A) (A) (A) (A) (A) (A) (A) (A) (A)
 The electronic state is 1-A.
 Alpha  occ. eigenvalues --  -19.19266 -14.45873 -10.38104 -10.32432 -10.27992
 Alpha  occ. eigenvalues --  -10.27961 -10.27779 -10.27315 -10.27087  -1.16847
 Alpha  occ. eigenvalues --   -1.07422  -0.98106  -0.87827  -0.87673  -0.76911
 Alpha  occ. eigenvalues --   -0.74158  -0.69597  -0.66565  -0.62889  -0.59652
 Alpha  occ. eigenvalues --   -0.55865  -0.54526  -0.53609  -0.52804  -0.51995
 Alpha  occ. eigenvalues --   -0.48095  -0.46696  -0.44498  -0.40661  -0.36328
 Alpha  occ. eigenvalues --   -0.34328  -0.31219
 Alpha virt. eigenvalues --    0.06908   0.08217   0.13515   0.16650   0.18949
 Alpha virt. eigenvalues --    0.23614   0.24563   0.25575   0.27344   0.28936
 Alpha virt. eigenvalues --    0.29684   0.33011   0.38076   0.39494   0.40090
 Alpha virt. eigenvalues --    0.42367   0.45010   0.48153   0.55931   0.61114
 Alpha virt. eigenvalues --    0.62362   0.63730   0.65344   0.67089   0.68926
 Alpha virt. eigenvalues --    0.70145   0.70458   0.70977   0.71512   0.72370
 Alpha virt. eigenvalues --    0.73137   0.74397   0.77042   0.78428   0.79593
 Alpha virt. eigenvalues --    0.86295   0.90436   0.92791   0.94307   0.95084
 Alpha virt. eigenvalues --    0.96061   0.96558   0.96777   0.99192   1.01373
 Alpha virt. eigenvalues --    1.05061   1.05469   1.06158   1.08849   1.12742
 Alpha virt. eigenvalues --    1.16347   1.18519   1.22525   1.24868   1.27946
 Alpha virt. eigenvalues --    1.30679   1.33583   1.36719   1.39948   1.46360
 Alpha virt. eigenvalues --    1.50842   1.53925   1.55288   1.58495   1.59103
 Alpha virt. eigenvalues --    1.61572   1.61659   1.63450   1.65760   1.72348
 Alpha virt. eigenvalues --    1.84722   1.88488   1.91161   1.93431   1.96234
 Alpha virt. eigenvalues --    1.99151   1.99767   2.04257   2.05092   2.08895
 Alpha virt. eigenvalues --    2.15901   2.16218   2.20100   2.24408   2.25908
 Alpha virt. eigenvalues --    2.26781   2.31677   2.36381   2.40314   2.41457
 Alpha virt. eigenvalues --    2.43285   2.45573   2.52393   2.60401   2.67850
 Alpha virt. eigenvalues --    2.69238   2.70906   2.74828   2.78921   2.83235
 Alpha virt. eigenvalues --    2.84473   2.86316   2.89156   2.99900   3.03982
 Alpha virt. eigenvalues --    3.11256   3.35662   3.53115   3.93983   4.15872
 Alpha virt. eigenvalues --    4.21439   4.24251   4.26662   4.33376   4.45449
 Alpha virt. eigenvalues --    4.51948   4.83047
          Condensed to atoms (all electrons):
               1          2          3          4          5          6
     1  C    4.480665   0.233242  -0.020271  -0.002286   0.003741   0.001784
     2  N    0.233242   7.221465   0.230409  -0.058820  -0.060061  -0.009691
     3  C   -0.020271   0.230409   4.502408   0.580261   0.544877  -0.025846
     4  C   -0.002286  -0.058820   0.580261   4.932433  -0.056384   0.360218
     5  C    0.003741  -0.060061   0.544877  -0.056384   4.981216   0.004762
     6  H    0.001784  -0.009691  -0.025846   0.360218   0.004762   0.482533
     7  C    0.000294   0.003954  -0.020669   0.525891  -0.039309  -0.034110
     8  H    0.000120  -0.006337  -0.043976   0.004349   0.364510  -0.000106
     9  C   -0.000115   0.004408  -0.019452  -0.037930   0.551096  -0.000025
    10  C    0.000007   0.000351  -0.031327  -0.045946  -0.047494   0.003493
    11  H    0.000001  -0.000108   0.003258   0.000525  -0.035364   0.000008
    12  H    0.391498  -0.106942   0.004049   0.000238  -0.000170   0.000299
    13  O    0.588169  -0.094088   0.002159  -0.006416   0.000333   0.017048
    14  H   -0.016213   0.309809  -0.027693   0.004066  -0.002921  -0.000092
    15  H   -0.000002  -0.000075   0.002228  -0.030046   0.000640  -0.003247
    16  H   -0.000000   0.000002   0.000319   0.003339   0.003889  -0.000095
               7          8          9         10         11         12
     1  C    0.000294   0.000120  -0.000115   0.000007   0.000001   0.391498
     2  N    0.003954  -0.006337   0.004408   0.000351  -0.000108  -0.106942
     3  C   -0.020669  -0.043976  -0.019452  -0.031327   0.003258   0.004049
     4  C    0.525891   0.004349  -0.037930  -0.045946   0.000525   0.000238
     5  C   -0.039309   0.364510   0.551096  -0.047494  -0.035364  -0.000170
     6  H   -0.034110  -0.000106  -0.000025   0.003493   0.000008   0.000299
     7  C    4.886842   0.000119  -0.033525   0.545962   0.004113   0.000009
     8  H    0.000119   0.551030  -0.029068   0.003746  -0.004474   0.000005
     9  C   -0.033525  -0.029068   4.823947   0.565641   0.369945  -0.000001
    10  C    0.545962   0.003746   0.565641   4.867054  -0.036866   0.000000
    11  H    0.004113  -0.004474   0.369945  -0.036866   0.544016  -0.000000
    12  H    0.000009   0.000005  -0.000001   0.000000  -0.000000   0.611723
    13  O    0.000592   0.000003  -0.000008  -0.000001  -0.000000  -0.047827
    14  H   -0.000045   0.006001   0.000136  -0.000007  -0.000011   0.002481
    15  H    0.369656   0.000010   0.003887  -0.037838  -0.000157  -0.000000
    16  H   -0.034489  -0.000121  -0.035675   0.372748  -0.003994   0.000000
              13         14         15         16
     1  C    0.588169  -0.016213  -0.000002  -0.000000
     2  N   -0.094088   0.309809  -0.000075   0.000002
     3  C    0.002159  -0.027693   0.002228   0.000319
     4  C   -0.006416   0.004066  -0.030046   0.003339
     5  C    0.000333  -0.002921   0.000640   0.003889
     6  H    0.017048  -0.000092  -0.003247  -0.000095
     7  C    0.000592  -0.000045   0.369656  -0.034489
     8  H    0.000003   0.006001   0.000010  -0.000121
     9  C   -0.000008   0.000136   0.003887  -0.035675
    10  C   -0.000001  -0.000007  -0.037838   0.372748
    11  H   -0.000000  -0.000011  -0.000157  -0.003994
    12  H   -0.047827   0.002481  -0.000000   0.000000
    13  O    7.980976   0.002639  -0.000002   0.000000
    14  H    0.002639   0.375954   0.000002  -0.000000
    15  H   -0.000002   0.000002   0.531296  -0.003394
    16  H    0.000000  -0.000000  -0.003394   0.534015
 Mulliken charges:
               1
     1  C    0.339366
     2  N   -0.667519
     3  C    0.319267
     4  C   -0.173493
     5  C   -0.213363
     6  H    0.203067
     7  C   -0.175286
     8  H    0.154190
     9  C   -0.163262
    10  C   -0.159523
    11  H    0.159107
    12  H    0.144635
    13  O   -0.443576
    14  H    0.345894
    15  H    0.167041
    16  H    0.163456
 Sum of Mulliken charges =  -0.00000
 Mulliken charges with hydrogens summed into heavy atoms:
               1
     1  C    0.484001
     2  N   -0.321625
     3  C    0.319267
     4  C    0.029573
     5  C   -0.059173
     7  C   -0.008245
     9  C   -0.004155
    10  C    0.003933
    13  O   -0.443576
 Electronic spatial extent (au):  <R**2>=           1223.2038
 Charge=             -0.0000 electrons
 Dipole moment (field-independent basis, Debye):
    X=             -0.8649    Y=             -3.1830    Z=             -0.8291  Tot=              3.4010
 Quadrupole moment (field-independent basis, Debye-Ang):
   XX=            -48.9165   YY=            -45.4790   ZZ=            -55.2357
   XY=             -8.6582   XZ=             -3.0365   YZ=             -1.1182
 Traceless Quadrupole moment (field-independent basis, Debye-Ang):
   XX=              0.9605   YY=              4.3981   ZZ=             -5.3586
   XY=             -8.6582   XZ=             -3.0365   YZ=             -1.1182
 Octapole moment (field-independent basis, Debye-Ang**2):
  XXX=             -2.1936  YYY=             -7.4328  ZZZ=              1.3578  XYY=              0.1874
  XXY=            -20.7342  XXZ=             -3.8760  XZZ=              8.6208  YZZ=              0.1843
  YYZ=             -2.3092  XYZ=             -0.7435
 Hexadecapole moment (field-independent basis, Debye-Ang**3):
 XXXX=          -1090.5533 YYYY=           -327.3079 ZZZZ=            -66.6426 XXXY=            -61.1291
 XXXZ=            -24.1379 YYYX=            -15.8976 YYYZ=             -0.1143 ZZZX=              3.7488
 ZZZY=              2.1791 XXYY=           -244.5195 XXZZ=           -216.9222 YYZZ=            -77.4640
 XXYZ=             -6.6070 YYXZ=             -5.2232 ZZXY=              1.9915
 N-N= 4.040167591372D+02 E-N=-1.740114441965D+03  KE= 3.970310398087D+02
 1\1\GINC-NODE86\SP\RwB97X\6-31G(d)\C7H7N1O1\YANZ\22-Sep-2023\0\\# 6-31
 g(d) wb97x\\tmpdir/M3_conf_2_73.gjf\\0,1\C,0,0.,0.,0.\N,0,1.3697,0.,0.
 \C,0,2.22563,0.,1.12601\C,0,1.82923,-0.51226,2.36107\C,0,3.51493,0.496
 33,0.94843\H,0,0.83571,-0.90611,2.49818\C,0,2.73101,-0.51374,3.42816\H
 ,0,3.824,0.8983,-0.01419\C,0,4.39993,0.48206,2.0176\C,0,4.03937,-0.010
 66,3.26544\H,0,5.40655,0.87099,1.87907\H,0,-0.45796,0.02462,-0.98628\O
 ,0,-0.68317,-0.01008,1.01279\H,0,1.81075,0.20414,-0.88424\H,0,2.47612,
 -0.8992,4.4287\H,0,4.75478,-0.0059,4.08991\\Version=ES64L-G16RevA.03\S
 tate=1-A\HF=-400.8312628\RMSD=7.021e-09\Dipole=0.9623292,0.0858155,-0.
 9257297\Quadrupole=-5.0473273,-2.7892391,7.8365665,1.5809062,2.5259818
 ,-2.1327446\PG=C01 [X(C7H7N1O1)]\\@


  THE LARGE PRINT GIVETH,
  AND THE SMALL PRINT TAKETH AWAY.

                     -- TOM WAITS
 Job cpu time:       0 days  0 hours  1 minutes 45.4 seconds.
 Elapsed time:       0 days  0 hours  0 minutes 28.8 seconds.
 File lengths (MBytes):  RWF=     15 Int=      0 D2E=      0 Chk=      2 Scr=      1
 Normal termination of Gaussian 16 at Fri Sep 22 11:15:15 2023.
