 Entering Gaussian System, Link 0=g16
 Initial command:
 /share/apps/gaussian/g16/l1.exe "/tmp/55478.mgr/Gau-306411.inp" -scrdir="/tmp/55478.mgr/"
 Entering Link 1 = /share/apps/gaussian/g16/l1.exe PID=    306415.
  
 Copyright (c) 1988,1990,1992,1993,1995,1998,2003,2009,2016,
            Gaussian, Inc.  All Rights Reserved.
  
 This is part of the Gaussian(R) 16 program.  It is based on
 the Gaussian(R) 09 system (copyright 2009, Gaussian, Inc.),
 the Gaussian(R) 03 system (copyright 2003, Gaussian, Inc.),
 the Gaussian(R) 98 system (copyright 1998, Gaussian, Inc.),
 the Gaussian(R) 94 system (copyright 1995, Gaussian, Inc.),
 the Gaussian 92(TM) system (copyright 1992, Gaussian, Inc.),
 the Gaussian 90(TM) system (copyright 1990, Gaussian, Inc.),
 the Gaussian 88(TM) system (copyright 1988, Gaussian, Inc.),
 the Gaussian 86(TM) system (copyright 1986, Carnegie Mellon
 University), and the Gaussian 82(TM) system (copyright 1983,
 Carnegie Mellon University). Gaussian is a federally registered
 trademark of Gaussian, Inc.
  
 This software contains proprietary and confidential information,
 including trade secrets, belonging to Gaussian, Inc.
  
 This software is provided under written license and may be
 used, copied, transmitted, or stored only in accord with that
 written license.
  
 The following legend is applicable only to US Government
 contracts under FAR:
  
                    RESTRICTED RIGHTS LEGEND
  
 Use, reproduction and disclosure by the US Government is
 subject to restrictions as set forth in subparagraphs (a)
 and (c) of the Commercial Computer Software - Restricted
 Rights clause in FAR 52.227-19.
  
 Gaussian, Inc.
 340 Quinnipiac St., Bldg. 40, Wallingford CT 06492
  
  
 ---------------------------------------------------------------
 Warning -- This program may not be used in any manner that
 competes with the business of Gaussian, Inc. or will provide
 assistance to any competitor of Gaussian, Inc.  The licensee
 of this program is prohibited from giving any competitor of
 Gaussian, Inc. access to this program.  By using this program,
 the user acknowledges that Gaussian, Inc. is engaged in the
 business of creating and licensing software in the field of
 computational chemistry and represents and warrants to the
 licensee that it is not a competitor of Gaussian, Inc. and that
 it will not use this program in any manner prohibited above.
 ---------------------------------------------------------------
  

 Cite this work as:
 Gaussian 16, Revision A.03,
 M. J. Frisch, G. W. Trucks, H. B. Schlegel, G. E. Scuseria, 
 M. A. Robb, J. R. Cheeseman, G. Scalmani, V. Barone, 
 G. A. Petersson, H. Nakatsuji, X. Li, M. Caricato, A. V. Marenich, 
 J. Bloino, B. G. Janesko, R. Gomperts, B. Mennucci, H. P. Hratchian, 
 J. V. Ortiz, A. F. Izmaylov, J. L. Sonnenberg, D. Williams-Young, 
 F. Ding, F. Lipparini, F. Egidi, J. Goings, B. Peng, A. Petrone, 
 T. Henderson, D. Ranasinghe, V. G. Zakrzewski, J. Gao, N. Rega, 
 G. Zheng, W. Liang, M. Hada, M. Ehara, K. Toyota, R. Fukuda, 
 J. Hasegawa, M. Ishida, T. Nakajima, Y. Honda, O. Kitao, H. Nakai, 
 T. Vreven, K. Throssell, J. A. Montgomery, Jr., J. E. Peralta, 
 F. Ogliaro, M. J. Bearpark, J. J. Heyd, E. N. Brothers, K. N. Kudin, 
 V. N. Staroverov, T. A. Keith, R. Kobayashi, J. Normand, 
 K. Raghavachari, A. P. Rendell, J. C. Burant, S. S. Iyengar, 
 J. Tomasi, M. Cossi, J. M. Millam, M. Klene, C. Adamo, R. Cammi, 
 J. W. Ochterski, R. L. Martin, K. Morokuma, O. Farkas, 
 J. B. Foresman, and D. J. Fox, Gaussian, Inc., Wallingford CT, 2016.
 
 ******************************************
 Gaussian 16:  ES64L-G16RevA.03 25-Dec-2016
                22-Sep-2023 
 ******************************************
 %nprocshared=4
 Will use up to    4 processors via shared memory.
 %mem=4GB
 ----------------
 # 6-31g(d) wb97x
 ----------------
 1/38=1,172=1/1;
 2/12=2,17=6,18=5,40=1/2;
 3/5=1,6=6,7=1,11=2,25=1,30=1,74=-57/1,2,3;
 4//1;
 5/5=2,38=5/2;
 6/7=2,8=2,9=2,10=2,28=1/1;
 99/5=1,9=1/99;
 ---------------------------
 tmpdir/M3_frag_conf_0_2.gjf
 ---------------------------
 Symbolic Z-matrix:
 Charge =  0 Multiplicity = 1
 C                     2.786    -0.81      15.084 
 N                     3.097     0.226     14.269 
 N                     3.715    -1.277     15.952 
 C                     5.       -0.793     15.991 
 H                     5.67029  -1.26099   16.70558 
 C                     5.354     0.266     15.158 
 H                     6.36059   0.65906   15.18638 
 C                     4.356     0.777     14.295 
 H                     1.81528  -1.27217   15.13037 
 H                     4.54493   1.56748   13.68114 
 
                          Input orientation:                          
 ---------------------------------------------------------------------
 Center     Atomic      Atomic             Coordinates (Angstroms)
 Number     Number       Type             X           Y           Z
 ---------------------------------------------------------------------
      1          6           0        2.786000   -0.810000   15.084000
      2          7           0        3.097000    0.226000   14.269000
      3          7           0        3.715000   -1.277000   15.952000
      4          6           0        5.000000   -0.793000   15.991000
      5          1           0        5.670286   -1.260992   16.705579
      6          6           0        5.354000    0.266000   15.158000
      7          1           0        6.360589    0.659060   15.186376
      8          6           0        4.356000    0.777000   14.295000
      9          1           0        1.815276   -1.272174   15.130375
     10          1           0        4.544934    1.567484   13.681145
 ---------------------------------------------------------------------
                    Distance matrix (angstroms):
                    1          2          3          4          5
     1  C    0.000000
     2  N    1.354342   0.000000
     3  N    1.354457   2.339535   0.000000
     4  C    2.392642   2.761350   1.373682   0.000000
     5  H    3.339464   3.843158   2.095538   1.085782   0.000000
     6  C    2.785296   2.426102   2.386966   1.393085   2.196985
     7  H    3.866045   3.417621   3.366549   2.146416   2.543835
     8  C    2.367697   1.374539   2.715777   2.399177   3.419306
     9  H    1.076132   2.151583   2.069793   3.333579   4.164432
    10  H    3.273268   2.059530   3.733184   3.333826   4.291141
                    6          7          8          9         10
     6  C    0.000000
     7  H    1.080982   0.000000
     8  C    1.414883   2.197007   0.000000
     9  H    3.858667   4.938894   3.369309   0.000000
    10  H    2.128274   2.527362   1.018518   4.197018   0.000000
 Stoichiometry    C4H4N2
 Framework group  C1[X(C4H4N2)]
 Deg. of freedom    24
 Full point group                 C1      NOp   1
 Largest Abelian subgroup         C1      NOp   1
 Largest concise Abelian subgroup C1      NOp   1
                         Standard orientation:                         
 ---------------------------------------------------------------------
 Center     Atomic      Atomic             Coordinates (Angstroms)
 Number     Number       Type             X           Y           Z
 ---------------------------------------------------------------------
      1          6           0       -1.389785   -0.159722   -0.016135
      2          7           0       -0.863664    1.088195   -0.004274
      3          7           0       -0.562827   -1.231777    0.021193
      4          6           0        0.805292   -1.111720   -0.007756
      5          1           0        1.371064   -2.038441   -0.004073
      6          6           0        1.377251    0.158535   -0.005994
      7          1           0        2.452990    0.263784   -0.021138
      8          6           0        0.499032    1.267773    0.008753
      9          1           0       -2.444923   -0.370889   -0.003826
     10          1           0        0.855559    2.221422    0.037395
 ---------------------------------------------------------------------
 Rotational constants (GHZ):           6.1752076           5.8518973           3.0050871
 Standard basis: 6-31G(d) (6D, 7F)
 There are    98 symmetry adapted cartesian basis functions of A   symmetry.
 There are    98 symmetry adapted basis functions of A   symmetry.
    98 basis functions,   184 primitive gaussians,    98 cartesian basis functions
    21 alpha electrons       21 beta electrons
       nuclear repulsion energy       206.1338595218 Hartrees.
 NAtoms=   10 NActive=   10 NUniq=   10 SFac= 1.00D+00 NAtFMM=   60 NAOKFM=F Big=F
 Integral buffers will be    131072 words long.
 Raffenetti 2 integral format.
 Two-electron integral symmetry is turned on.
 One-electron integrals computed using PRISM.
 NBasis=    98 RedAO= T EigKep=  1.54D-03  NBF=    98
 NBsUse=    98 1.00D-06 EigRej= -1.00D+00 NBFU=    98
 ExpMin= 1.61D-01 ExpMax= 4.17D+03 ExpMxC= 6.27D+02 IAcc=3 IRadAn=         5 AccDes= 0.00D+00
 Harris functional with IExCor= 4538 and IRadAn=       5 diagonalized for initial guess.
 HarFok:  IExCor= 4538 AccDes= 0.00D+00 IRadAn=         5 IDoV= 1 UseB2=F ITyADJ=14
 ICtDFT=  3500011 ScaDFX=  1.000000  1.000000  1.000000  1.000000
 FoFCou: FMM=F IPFlag=           0 FMFlag=      100000 FMFlg1=           0
         NFxFlg=           0 DoJE=T BraDBF=F KetDBF=T FulRan=T
         wScrn=  0.000000 ICntrl=       500 IOpCl=  0 I1Cent=   200000004 NGrid=           0
         NMat0=    1 NMatS0=      1 NMatT0=    0 NMatD0=    1 NMtDS0=    0 NMtDT0=    0
 Petite list used in FoFCou.
 Keep R1 ints in memory in canonical form, NReq=27222676.
 Requested convergence on RMS density matrix=1.00D-08 within 128 cycles.
 Requested convergence on MAX density matrix=1.00D-06.
 Requested convergence on             energy=1.00D-06.
 No special actions if energy rises.
 Integral accuracy reduced to 1.0D-05 until final iterations.
 Initial convergence to 1.0D-05 achieved.  Increase integral accuracy.
 SCF Done:  E(RwB97X) =  -264.232431140     A.U. after   15 cycles
            NFock= 15  Conv=0.51D-08     -V/T= 2.0105

 **********************************************************************

            Population analysis using the SCF density.

 **********************************************************************

 Orbital symmetries:
       Occupied  (A) (A) (A) (A) (A) (A) (A) (A) (A) (A) (A) (A)
                 (A) (A) (A) (A) (A) (A) (A) (A) (A)
       Virtual   (A) (A) (A) (A) (A) (A) (A) (A) (A) (A) (A) (A)
                 (A) (A) (A) (A) (A) (A) (A) (A) (A) (A) (A) (A)
                 (A) (A) (A) (A) (A) (A) (A) (A) (A) (A) (A) (A)
                 (A) (A) (A) (A) (A) (A) (A) (A) (A) (A) (A) (A)
                 (A) (A) (A) (A) (A) (A) (A) (A) (A) (A) (A) (A)
                 (A) (A) (A) (A) (A) (A) (A) (A) (A) (A) (A) (A)
                 (A) (A) (A) (A) (A)
 The electronic state is 1-A.
 Alpha  occ. eigenvalues --  -14.42220 -14.41670 -10.34808 -10.33359 -10.33111
 Alpha  occ. eigenvalues --  -10.29986  -1.10112  -0.99526  -0.92674  -0.78192
 Alpha  occ. eigenvalues --   -0.77456  -0.66290  -0.61514  -0.58857  -0.53723
 Alpha  occ. eigenvalues --   -0.53216  -0.53053  -0.40165  -0.39920  -0.38078
 Alpha  occ. eigenvalues --   -0.33746
 Alpha virt. eigenvalues --    0.03899   0.05450   0.20407   0.22755   0.24233
 Alpha virt. eigenvalues --    0.24923   0.26802   0.31555   0.33458   0.41039
 Alpha virt. eigenvalues --    0.43975   0.47651   0.49555   0.60926   0.64729
 Alpha virt. eigenvalues --    0.66992   0.67885   0.68405   0.68491   0.69452
 Alpha virt. eigenvalues --    0.72140   0.76392   0.77731   0.78333   0.91040
 Alpha virt. eigenvalues --    0.93691   0.95789   0.96868   0.97931   0.98570
 Alpha virt. eigenvalues --    0.99644   1.02945   1.05878   1.06484   1.16289
 Alpha virt. eigenvalues --    1.19321   1.27998   1.31501   1.34795   1.46861
 Alpha virt. eigenvalues --    1.50038   1.53858   1.56905   1.57769   1.59739
 Alpha virt. eigenvalues --    1.63968   1.71836   1.80174   1.90195   1.93853
 Alpha virt. eigenvalues --    1.99000   2.03343   2.18205   2.20019   2.23853
 Alpha virt. eigenvalues --    2.24451   2.26885   2.27496   2.39268   2.42781
 Alpha virt. eigenvalues --    2.45685   2.58620   2.61741   2.68708   2.77713
 Alpha virt. eigenvalues --    2.80205   2.80884   2.81611   2.91181   3.11944
 Alpha virt. eigenvalues --    3.44181   3.97302   4.13993   4.23785   4.32549
 Alpha virt. eigenvalues --    4.34383   4.60668
          Condensed to atoms (all electrons):
               1          2          3          4          5          6
     1  C    4.668397   0.440706   0.459617  -0.060749   0.003406  -0.022808
     2  N    0.440706   6.720802  -0.071150  -0.029459  -0.000411  -0.038888
     3  N    0.459617  -0.071150   6.716396   0.472503  -0.043107  -0.043934
     4  C   -0.060749  -0.029459   0.472503   4.747694   0.394109   0.499162
     5  H    0.003406  -0.000411  -0.043107   0.394109   0.506960  -0.055157
     6  C   -0.022808  -0.038888  -0.043934   0.499162  -0.055157   5.066295
     7  H    0.000179   0.003115   0.003779  -0.030319  -0.000711   0.358118
     8  C   -0.061426   0.475298  -0.032592  -0.034586   0.002508   0.493493
     9  H    0.401870  -0.048147  -0.056040   0.003796  -0.000070  -0.000468
    10  H    0.003844  -0.042906  -0.000258   0.003109  -0.000110  -0.058219
               7          8          9         10
     1  C    0.000179  -0.061426   0.401870   0.003844
     2  N    0.003115   0.475298  -0.048147  -0.042906
     3  N    0.003779  -0.032592  -0.056040  -0.000258
     4  C   -0.030319  -0.034586   0.003796   0.003109
     5  H   -0.000711   0.002508  -0.000070  -0.000110
     6  C    0.358118   0.493493  -0.000468  -0.058219
     7  H    0.513970  -0.028767   0.000018  -0.000988
     8  C   -0.028767   4.738564   0.003256   0.401835
     9  H    0.000018   0.003256   0.494473  -0.000058
    10  H   -0.000988   0.401835  -0.000058   0.501666
 Mulliken charges:
               1
     1  C    0.166964
     2  N   -0.408959
     3  N   -0.405213
     4  C    0.034740
     5  H    0.192583
     6  C   -0.197594
     7  H    0.181606
     8  C    0.042416
     9  H    0.201371
    10  H    0.192085
 Sum of Mulliken charges =  -0.00000
 Mulliken charges with hydrogens summed into heavy atoms:
               1
     1  C    0.368335
     2  N   -0.408959
     3  N   -0.405213
     4  C    0.227324
     6  C   -0.015988
     8  C    0.234501
 Electronic spatial extent (au):  <R**2>=            417.6560
 Charge=             -0.0000 electrons
 Dipole moment (field-independent basis, Debye):
    X=              2.2066    Y=              0.1974    Z=             -0.0335  Tot=              2.2156
 Quadrupole moment (field-independent basis, Debye-Ang):
   XX=            -29.0729   YY=            -36.1808   ZZ=            -35.5042
   XY=              1.0162   XZ=              0.0286   YZ=              0.1547
 Traceless Quadrupole moment (field-independent basis, Debye-Ang):
   XX=              4.5130   YY=             -2.5948   ZZ=             -1.9182
   XY=              1.0162   XZ=              0.0286   YZ=              0.1547
 Octapole moment (field-independent basis, Debye-Ang**2):
  XXX=             -2.1562  YYY=              4.5057  ZZZ=              0.0425  XYY=             13.6948
  XXY=             -4.2916  XXZ=             -0.1074  XZZ=             -1.2922  YZZ=             -0.0175
  YYZ=              0.0489  XYZ=             -0.0111
 Hexadecapole moment (field-independent basis, Debye-Ang**3):
 XXXX=           -229.9537 YYYY=           -245.9089 ZZZZ=            -34.1830 XXXY=              7.6239
 XXXZ=             -0.2410 YYYX=             -1.2221 YYYZ=              0.6932 ZZZX=              0.0119
 ZZZY=              0.0570 XXYY=            -88.7100 XXZZ=            -53.7596 YYZZ=            -49.0579
 XXYZ=              0.0990 YYXZ=              0.2107 ZZXY=              0.0877
 N-N= 2.061338595218D+02 E-N=-1.025666862499D+03  KE= 2.614914179505D+02
 1\1\GINC-NODE86\SP\RwB97X\6-31G(d)\C4H4N2\YANZ\22-Sep-2023\0\\# 6-31g(
 d) wb97x\\tmpdir/M3_frag_conf_0_2.gjf\\0,1\C,0,2.786,-0.81,15.084\N,0,
 3.097,0.226,14.269\N,0,3.715,-1.277,15.952\C,0,5.,-0.793,15.991\H,0,5.
 670286,-1.260992,16.705579\C,0,5.354,0.266,15.158\H,0,6.360589,0.65906
 ,15.186376\C,0,4.356,0.777,14.295\H,0,1.81527642,-1.27217447,15.130374
 65\H,0,4.54493425,1.56748351,13.68114467\\Version=ES64L-G16RevA.03\Sta
 te=1-A\HF=-264.2324311\RMSD=5.147e-09\Dipole=0.8136673,0.3115153,0.027
 3544\Quadrupole=2.63041,-0.7852583,-1.8451517,1.8777231,-0.0662617,0.3
 017851\PG=C01 [X(C4H4N2)]\\@


 ABSOLUTISM, OBSOLETISM -- IF IT WORKS, IT'S OUT OF DATE

                          -- STAFFORD BEER
 Job cpu time:       0 days  0 hours  0 minutes 37.8 seconds.
 Elapsed time:       0 days  0 hours  0 minutes  9.8 seconds.
 File lengths (MBytes):  RWF=     10 Int=      0 D2E=      0 Chk=      2 Scr=      1
 Normal termination of Gaussian 16 at Fri Sep 22 11:12:17 2023.
