 Entering Gaussian System, Link 0=g16
 Initial command:
 /share/apps/gaussian/g16/l1.exe "/tmp/55478.mgr/Gau-306410.inp" -scrdir="/tmp/55478.mgr/"
 Entering Link 1 = /share/apps/gaussian/g16/l1.exe PID=    306414.
  
 Copyright (c) 1988,1990,1992,1993,1995,1998,2003,2009,2016,
            Gaussian, Inc.  All Rights Reserved.
  
 This is part of the Gaussian(R) 16 program.  It is based on
 the Gaussian(R) 09 system (copyright 2009, Gaussian, Inc.),
 the Gaussian(R) 03 system (copyright 2003, Gaussian, Inc.),
 the Gaussian(R) 98 system (copyright 1998, Gaussian, Inc.),
 the Gaussian(R) 94 system (copyright 1995, Gaussian, Inc.),
 the Gaussian 92(TM) system (copyright 1992, Gaussian, Inc.),
 the Gaussian 90(TM) system (copyright 1990, Gaussian, Inc.),
 the Gaussian 88(TM) system (copyright 1988, Gaussian, Inc.),
 the Gaussian 86(TM) system (copyright 1986, Carnegie Mellon
 University), and the Gaussian 82(TM) system (copyright 1983,
 Carnegie Mellon University). Gaussian is a federally registered
 trademark of Gaussian, Inc.
  
 This software contains proprietary and confidential information,
 including trade secrets, belonging to Gaussian, Inc.
  
 This software is provided under written license and may be
 used, copied, transmitted, or stored only in accord with that
 written license.
  
 The following legend is applicable only to US Government
 contracts under FAR:
  
                    RESTRICTED RIGHTS LEGEND
  
 Use, reproduction and disclosure by the US Government is
 subject to restrictions as set forth in subparagraphs (a)
 and (c) of the Commercial Computer Software - Restricted
 Rights clause in FAR 52.227-19.
  
 Gaussian, Inc.
 340 Quinnipiac St., Bldg. 40, Wallingford CT 06492
  
  
 ---------------------------------------------------------------
 Warning -- This program may not be used in any manner that
 competes with the business of Gaussian, Inc. or will provide
 assistance to any competitor of Gaussian, Inc.  The licensee
 of this program is prohibited from giving any competitor of
 Gaussian, Inc. access to this program.  By using this program,
 the user acknowledges that Gaussian, Inc. is engaged in the
 business of creating and licensing software in the field of
 computational chemistry and represents and warrants to the
 licensee that it is not a competitor of Gaussian, Inc. and that
 it will not use this program in any manner prohibited above.
 ---------------------------------------------------------------
  

 Cite this work as:
 Gaussian 16, Revision A.03,
 M. J. Frisch, G. W. Trucks, H. B. Schlegel, G. E. Scuseria, 
 M. A. Robb, J. R. Cheeseman, G. Scalmani, V. Barone, 
 G. A. Petersson, H. Nakatsuji, X. Li, M. Caricato, A. V. Marenich, 
 J. Bloino, B. G. Janesko, R. Gomperts, B. Mennucci, H. P. Hratchian, 
 J. V. Ortiz, A. F. Izmaylov, J. L. Sonnenberg, D. Williams-Young, 
 F. Ding, F. Lipparini, F. Egidi, J. Goings, B. Peng, A. Petrone, 
 T. Henderson, D. Ranasinghe, V. G. Zakrzewski, J. Gao, N. Rega, 
 G. Zheng, W. Liang, M. Hada, M. Ehara, K. Toyota, R. Fukuda, 
 J. Hasegawa, M. Ishida, T. Nakajima, Y. Honda, O. Kitao, H. Nakai, 
 T. Vreven, K. Throssell, J. A. Montgomery, Jr., J. E. Peralta, 
 F. Ogliaro, M. J. Bearpark, J. J. Heyd, E. N. Brothers, K. N. Kudin, 
 V. N. Staroverov, T. A. Keith, R. Kobayashi, J. Normand, 
 K. Raghavachari, A. P. Rendell, J. C. Burant, S. S. Iyengar, 
 J. Tomasi, M. Cossi, J. M. Millam, M. Klene, C. Adamo, R. Cammi, 
 J. W. Ochterski, R. L. Martin, K. Morokuma, O. Farkas, 
 J. B. Foresman, and D. J. Fox, Gaussian, Inc., Wallingford CT, 2016.
 
 ******************************************
 Gaussian 16:  ES64L-G16RevA.03 25-Dec-2016
                22-Sep-2023 
 ******************************************
 %nprocshared=4
 Will use up to    4 processors via shared memory.
 %mem=4GB
 ----------------
 # 6-31g(d) wb97x
 ----------------
 1/38=1,172=1/1;
 2/12=2,17=6,18=5,40=1/2;
 3/5=1,6=6,7=1,11=2,25=1,30=1,74=-57/1,2,3;
 4//1;
 5/5=2,38=5/2;
 6/7=2,8=2,9=2,10=2,28=1/1;
 99/5=1,9=1/99;
 ---------------------------
 tmpdir/M3_frag_conf_0_0.gjf
 ---------------------------
 Symbolic Z-matrix:
 Charge =  0 Multiplicity = 1
 C                    -1.795     5.374     9.002 
 C                    -2.492     4.956     10.145 
 H                    -3.40239   5.46946   10.43223 
 C                    -2.022     3.879     10.905 
 H                    -2.56096   3.57514   11.80086 
 C                    -0.623     4.716     8.626 
 H                    -0.08248   5.02808   7.73502 
 C                    -0.159     3.641     9.384 
 H                     0.75043   3.11321   9.10949 
 C                    -0.854     3.216     10.521 
 H                    -2.12292   6.2195    8.38091 
 H                    -0.45224   2.3734    11.09359 
 
                          Input orientation:                          
 ---------------------------------------------------------------------
 Center     Atomic      Atomic             Coordinates (Angstroms)
 Number     Number       Type             X           Y           Z
 ---------------------------------------------------------------------
      1          6           0       -1.795000    5.374000    9.002000
      2          6           0       -2.492000    4.956000   10.145000
      3          1           0       -3.402387    5.469462   10.432230
      4          6           0       -2.022000    3.879000   10.905000
      5          1           0       -2.560957    3.575141   11.800859
      6          6           0       -0.623000    4.716000    8.626000
      7          1           0       -0.082476    5.028077    7.735022
      8          6           0       -0.159000    3.641000    9.384000
      9          1           0        0.750433    3.113213    9.109494
     10          6           0       -0.854000    3.216000   10.521000
     11          1           0       -2.122920    6.219499    8.380906
     12          1           0       -0.452243    2.373397   11.093594
 ---------------------------------------------------------------------
                    Distance matrix (angstroms):
                    1          2          3          4          5
     1  C    0.000000
     2  C    1.402491   0.000000
     3  H    2.153686   1.083951   0.000000
     4  C    2.430630   1.399439   2.158367   0.000000
     5  H    3.414117   2.157173   2.483868   1.088746   0.000000
     6  C    1.395680   2.420356   3.399289   2.802073   3.890625
     7  H    2.158155   3.408665   4.300181   3.889845   4.978446
     8  C    2.413651   2.784104   3.868025   2.416786   3.408070
     9  H    3.406162   3.870595   4.954539   3.390672   4.292101
    10  C    2.801751   2.419095   3.402976   1.396871   2.163498
    11  H    1.099162   2.201063   2.531308   3.443715   4.345179
    12  H    3.896329   3.424949   4.327398   2.183242   2.528060
                    6          7          8          9         10
     6  C    0.000000
     7  H    1.087842   0.000000
     8  C    1.394806   2.156146   0.000000
     9  H    2.165412   2.499923   1.086730   0.000000
    10  C    2.427836   3.411824   1.398720   2.139420   0.000000
    11  H    2.137836   2.449503   3.392910   4.293718   3.900150
    12  H    3.406753   4.296983   2.148376   2.435243   1.095104
                   11         12
    11  H    0.000000
    12  H    4.994231   0.000000
 Stoichiometry    C6H6
 Framework group  C1[X(C6H6)]
 Deg. of freedom    30
 Full point group                 C1      NOp   1
 Largest Abelian subgroup         C1      NOp   1
 Largest concise Abelian subgroup C1      NOp   1
                         Standard orientation:                         
 ---------------------------------------------------------------------
 Center     Atomic      Atomic             Coordinates (Angstroms)
 Number     Number       Type             X           Y           Z
 ---------------------------------------------------------------------
      1          6           0        1.246162    0.640153   -0.001979
      2          6           0        0.063708    1.394328   -0.000416
      3          1           0        0.121298    2.476733   -0.006070
      4          6           0       -1.181702    0.756062   -0.000407
      5          1           0       -2.092947    1.351541    0.019735
      6          6           0        1.178732   -0.753886    0.003709
      7          1           0        2.091547   -1.345528   -0.007679
      8          6           0       -0.064187   -1.386837    0.000630
      9          1           0       -0.140740   -2.470862    0.003870
     10          6           0       -1.246384   -0.639305   -0.004501
     11          1           0        2.244875    1.099131    0.006414
     12          1           0       -2.202005   -1.174100    0.001511
 ---------------------------------------------------------------------
 Rotational constants (GHZ):           5.7094094           5.6383291           2.8368545
 Standard basis: 6-31G(d) (6D, 7F)
 There are   102 symmetry adapted cartesian basis functions of A   symmetry.
 There are   102 symmetry adapted basis functions of A   symmetry.
   102 basis functions,   192 primitive gaussians,   102 cartesian basis functions
    21 alpha electrons       21 beta electrons
       nuclear repulsion energy       202.9309115362 Hartrees.
 NAtoms=   12 NActive=   12 NUniq=   12 SFac= 1.00D+00 NAtFMM=   60 NAOKFM=F Big=F
 Integral buffers will be    131072 words long.
 Raffenetti 2 integral format.
 Two-electron integral symmetry is turned on.
 One-electron integrals computed using PRISM.
 NBasis=   102 RedAO= T EigKep=  5.29D-04  NBF=   102
 NBsUse=   102 1.00D-06 EigRej= -1.00D+00 NBFU=   102
 ExpMin= 1.61D-01 ExpMax= 3.05D+03 ExpMxC= 4.57D+02 IAcc=3 IRadAn=         5 AccDes= 0.00D+00
 Harris functional with IExCor= 4538 and IRadAn=       5 diagonalized for initial guess.
 HarFok:  IExCor= 4538 AccDes= 0.00D+00 IRadAn=         5 IDoV= 1 UseB2=F ITyADJ=14
 ICtDFT=  3500011 ScaDFX=  1.000000  1.000000  1.000000  1.000000
 FoFCou: FMM=F IPFlag=           0 FMFlag=      100000 FMFlg1=           0
         NFxFlg=           0 DoJE=T BraDBF=F KetDBF=T FulRan=T
         wScrn=  0.000000 ICntrl=       500 IOpCl=  0 I1Cent=   200000004 NGrid=           0
         NMat0=    1 NMatS0=      1 NMatT0=    0 NMatD0=    1 NMtDS0=    0 NMtDT0=    0
 Petite list used in FoFCou.
 Keep R1 ints in memory in canonical form, NReq=31301824.
 Requested convergence on RMS density matrix=1.00D-08 within 128 cycles.
 Requested convergence on MAX density matrix=1.00D-06.
 Requested convergence on             energy=1.00D-06.
 No special actions if energy rises.
 Integral accuracy reduced to 1.0D-05 until final iterations.
 Initial convergence to 1.0D-05 achieved.  Increase integral accuracy.
 SCF Done:  E(RwB97X) =  -232.177937669     A.U. after   13 cycles
            NFock= 13  Conv=0.77D-08     -V/T= 2.0103

 **********************************************************************

            Population analysis using the SCF density.

 **********************************************************************

 Orbital symmetries:
       Occupied  (A) (A) (A) (A) (A) (A) (A) (A) (A) (A) (A) (A)
                 (A) (A) (A) (A) (A) (A) (A) (A) (A)
       Virtual   (A) (A) (A) (A) (A) (A) (A) (A) (A) (A) (A) (A)
                 (A) (A) (A) (A) (A) (A) (A) (A) (A) (A) (A) (A)
                 (A) (A) (A) (A) (A) (A) (A) (A) (A) (A) (A) (A)
                 (A) (A) (A) (A) (A) (A) (A) (A) (A) (A) (A) (A)
                 (A) (A) (A) (A) (A) (A) (A) (A) (A) (A) (A) (A)
                 (A) (A) (A) (A) (A) (A) (A) (A) (A) (A) (A) (A)
                 (A) (A) (A) (A) (A) (A) (A) (A) (A)
 The electronic state is 1-A.
 Alpha  occ. eigenvalues --  -10.27446 -10.27407 -10.27356 -10.27329 -10.27198
 Alpha  occ. eigenvalues --  -10.27136  -0.97947  -0.86949  -0.86786  -0.71783
 Alpha  occ. eigenvalues --   -0.71651  -0.63376  -0.56929  -0.54617  -0.52419
 Alpha  occ. eigenvalues --   -0.52180  -0.47435  -0.43943  -0.43791  -0.33866
 Alpha  occ. eigenvalues --   -0.33713
 Alpha virt. eigenvalues --    0.08645   0.08713   0.18512   0.24224   0.24513
 Alpha virt. eigenvalues --    0.27042   0.28038   0.28088   0.29164   0.39856
 Alpha virt. eigenvalues --    0.40034   0.41287   0.41591   0.57641   0.63278
 Alpha virt. eigenvalues --    0.65449   0.65773   0.67129   0.69573   0.70845
 Alpha virt. eigenvalues --    0.70909   0.71290   0.71566   0.73411   0.73586
 Alpha virt. eigenvalues --    0.77765   0.77799   0.85604   0.95620   0.96090
 Alpha virt. eigenvalues --    0.96264   0.97792   0.98151   1.04846   1.05019
 Alpha virt. eigenvalues --    1.05517   1.07675   1.18663   1.19042   1.25202
 Alpha virt. eigenvalues --    1.25663   1.31142   1.36329   1.49509   1.54338
 Alpha virt. eigenvalues --    1.54963   1.58921   1.59129   1.61761   1.62039
 Alpha virt. eigenvalues --    1.85984   1.89593   1.96255   2.00259   2.07502
 Alpha virt. eigenvalues --    2.08848   2.17116   2.17768   2.25077   2.25759
 Alpha virt. eigenvalues --    2.25830   2.25994   2.41000   2.41508   2.42505
 Alpha virt. eigenvalues --    2.64779   2.65226   2.75921   2.80691   2.81693
 Alpha virt. eigenvalues --    2.83463   2.83609   2.86006   3.13071   3.51146
 Alpha virt. eigenvalues --    4.21148   4.24394   4.24646   4.45550   4.45788
 Alpha virt. eigenvalues --    4.78806
          Condensed to atoms (all electrons):
               1          2          3          4          5          6
     1  C    4.853844   0.556501  -0.036960  -0.037522   0.003588   0.558045
     2  C    0.556501   4.852693   0.373365   0.557630  -0.036902  -0.039883
     3  H   -0.036960   0.373365   0.540062  -0.037004  -0.003976   0.003758
     4  C   -0.037522   0.557630  -0.037004   4.849979   0.372715  -0.034703
     5  H    0.003588  -0.036902  -0.003976   0.372715   0.539427   0.000324
     6  C    0.558045  -0.039883   0.003758  -0.034703   0.000324   4.846104
     7  H   -0.037129   0.003781  -0.000131   0.000302   0.000010   0.372622
     8  C   -0.039718  -0.035559   0.000342  -0.039820   0.003725   0.561779
     9  H    0.003887   0.000320   0.000010   0.004005  -0.000135  -0.036800
    10  C   -0.035126  -0.039003   0.003725   0.557236  -0.036384  -0.038872
    11  H    0.371257  -0.034178  -0.003544   0.003316  -0.000112  -0.038139
    12  H    0.000311   0.003487  -0.000120  -0.035376  -0.003540   0.003786
               7          8          9         10         11         12
     1  C   -0.037129  -0.039718   0.003887  -0.035126   0.371257   0.000311
     2  C    0.003781  -0.035559   0.000320  -0.039003  -0.034178   0.003487
     3  H   -0.000131   0.000342   0.000010   0.003725  -0.003544  -0.000120
     4  C    0.000302  -0.039820   0.004005   0.557236   0.003316  -0.035376
     5  H    0.000010   0.003725  -0.000135  -0.036384  -0.000112  -0.003540
     6  C    0.372622   0.561779  -0.036800  -0.038872  -0.038139   0.003786
     7  H    0.541343  -0.036742  -0.003926   0.003745  -0.004120  -0.000130
     8  C   -0.036742   4.847319   0.372569   0.559483   0.003840  -0.037376
     9  H   -0.003926   0.372569   0.544688  -0.038376  -0.000136  -0.004347
    10  C    0.003745   0.559483  -0.038376   4.851104   0.000334   0.371886
    11  H   -0.004120   0.003840  -0.000136   0.000334   0.540932   0.000010
    12  H   -0.000130  -0.037376  -0.004347   0.371886   0.000010   0.540687
 Mulliken charges:
               1
     1  C   -0.160979
     2  C   -0.162253
     3  H    0.160474
     4  C   -0.160759
     5  H    0.161258
     6  C   -0.158022
     7  H    0.160373
     8  C   -0.159842
     9  H    0.158241
    10  C   -0.159752
    11  H    0.160540
    12  H    0.160722
 Sum of Mulliken charges =  -0.00000
 Mulliken charges with hydrogens summed into heavy atoms:
               1
     1  C   -0.000439
     2  C   -0.001779
     4  C    0.000500
     6  C    0.002351
     8  C   -0.001602
    10  C    0.000969
 Electronic spatial extent (au):  <R**2>=            458.9904
 Charge=             -0.0000 electrons
 Dipole moment (field-independent basis, Debye):
    X=              0.0052    Y=             -0.0218    Z=              0.0121  Tot=              0.0254
 Quadrupole moment (field-independent basis, Debye-Ang):
   XX=            -30.9655   YY=            -31.1217   ZZ=            -38.9275
   XY=              0.0140   XZ=             -0.0448   YZ=              0.0165
 Traceless Quadrupole moment (field-independent basis, Debye-Ang):
   XX=              2.7061   YY=              2.5498   ZZ=             -5.2559
   XY=              0.0140   XZ=             -0.0448   YZ=              0.0165
 Octapole moment (field-independent basis, Debye-Ang**2):
  XXX=              0.5009  YYY=             -0.0653  ZZZ=              0.0161  XYY=             -0.4439
  XXY=             -0.1594  XXZ=              0.0918  XZZ=             -0.0015  YZZ=             -0.0294
  YYZ=              0.0184  XYZ=             -0.0033
 Hexadecapole moment (field-independent basis, Debye-Ang**3):
 XXXX=           -267.2573 YYYY=           -265.4645 ZZZZ=            -40.6173 XXXY=             -0.0366
 XXXZ=             -0.2499 YYYX=              0.1270 YYYZ=             -0.0573 ZZZX=             -0.0486
 ZZZY=              0.0175 XXYY=            -88.6333 XXZZ=            -61.1669 YYZZ=            -60.5319
 XXYZ=              0.1966 YYXZ=             -0.1199 ZZXY=             -0.0498
 N-N= 2.029309115362D+02 E-N=-9.429470886825D+02  KE= 2.298082439702D+02
 1\1\GINC-NODE86\SP\RwB97X\6-31G(d)\C6H6\YANZ\22-Sep-2023\0\\# 6-31g(d)
  wb97x\\tmpdir/M3_frag_conf_0_0.gjf\\0,1\C,0,-1.795,5.374,9.002\C,0,-2
 .492,4.956,10.145\H,0,-3.402387,5.469462,10.43223\C,0,-2.022,3.879,10.
 905\H,0,-2.560957,3.575141,11.800859\C,0,-0.623,4.716,8.626\H,0,-0.082
 476,5.028077,7.735022\C,0,-0.159,3.641,9.384\H,0,0.750433,3.113213,9.1
 09494\C,0,-0.854,3.216,10.521\H,0,-2.12292036,6.21949885,8.38090581\H,
 0,-0.45224327,2.3733967,11.09359383\\Version=ES64L-G16RevA.03\State=1-
 A\HF=-232.1779377\RMSD=7.662e-09\Dipole=0.0098714,0.0004981,-0.0015803
 \Quadrupole=0.2012925,-0.3742222,0.1729297,-1.9850076,-1.7375969,-2.09
 5779\PG=C01 [X(C6H6)]\\@


 ABSOLUTISM, OBSOLETISM -- IF IT WORKS, IT'S OUT OF DATE

                          -- STAFFORD BEER
 Job cpu time:       0 days  0 hours  0 minutes 39.8 seconds.
 Elapsed time:       0 days  0 hours  0 minutes 10.3 seconds.
 File lengths (MBytes):  RWF=     10 Int=      0 D2E=      0 Chk=      2 Scr=      1
 Normal termination of Gaussian 16 at Fri Sep 22 11:12:17 2023.
