 Entering Gaussian System, Link 0=g16
 Initial command:
 /share/apps/gaussian/g16/l1.exe "/tmp/55478.mgr/Gau-306412.inp" -scrdir="/tmp/55478.mgr/"
 Entering Link 1 = /share/apps/gaussian/g16/l1.exe PID=    306416.
  
 Copyright (c) 1988,1990,1992,1993,1995,1998,2003,2009,2016,
            Gaussian, Inc.  All Rights Reserved.
  
 This is part of the Gaussian(R) 16 program.  It is based on
 the Gaussian(R) 09 system (copyright 2009, Gaussian, Inc.),
 the Gaussian(R) 03 system (copyright 2003, Gaussian, Inc.),
 the Gaussian(R) 98 system (copyright 1998, Gaussian, Inc.),
 the Gaussian(R) 94 system (copyright 1995, Gaussian, Inc.),
 the Gaussian 92(TM) system (copyright 1992, Gaussian, Inc.),
 the Gaussian 90(TM) system (copyright 1990, Gaussian, Inc.),
 the Gaussian 88(TM) system (copyright 1988, Gaussian, Inc.),
 the Gaussian 86(TM) system (copyright 1986, Carnegie Mellon
 University), and the Gaussian 82(TM) system (copyright 1983,
 Carnegie Mellon University). Gaussian is a federally registered
 trademark of Gaussian, Inc.
  
 This software contains proprietary and confidential information,
 including trade secrets, belonging to Gaussian, Inc.
  
 This software is provided under written license and may be
 used, copied, transmitted, or stored only in accord with that
 written license.
  
 The following legend is applicable only to US Government
 contracts under FAR:
  
                    RESTRICTED RIGHTS LEGEND
  
 Use, reproduction and disclosure by the US Government is
 subject to restrictions as set forth in subparagraphs (a)
 and (c) of the Commercial Computer Software - Restricted
 Rights clause in FAR 52.227-19.
  
 Gaussian, Inc.
 340 Quinnipiac St., Bldg. 40, Wallingford CT 06492
  
  
 ---------------------------------------------------------------
 Warning -- This program may not be used in any manner that
 competes with the business of Gaussian, Inc. or will provide
 assistance to any competitor of Gaussian, Inc.  The licensee
 of this program is prohibited from giving any competitor of
 Gaussian, Inc. access to this program.  By using this program,
 the user acknowledges that Gaussian, Inc. is engaged in the
 business of creating and licensing software in the field of
 computational chemistry and represents and warrants to the
 licensee that it is not a competitor of Gaussian, Inc. and that
 it will not use this program in any manner prohibited above.
 ---------------------------------------------------------------
  

 Cite this work as:
 Gaussian 16, Revision A.03,
 M. J. Frisch, G. W. Trucks, H. B. Schlegel, G. E. Scuseria, 
 M. A. Robb, J. R. Cheeseman, G. Scalmani, V. Barone, 
 G. A. Petersson, H. Nakatsuji, X. Li, M. Caricato, A. V. Marenich, 
 J. Bloino, B. G. Janesko, R. Gomperts, B. Mennucci, H. P. Hratchian, 
 J. V. Ortiz, A. F. Izmaylov, J. L. Sonnenberg, D. Williams-Young, 
 F. Ding, F. Lipparini, F. Egidi, J. Goings, B. Peng, A. Petrone, 
 T. Henderson, D. Ranasinghe, V. G. Zakrzewski, J. Gao, N. Rega, 
 G. Zheng, W. Liang, M. Hada, M. Ehara, K. Toyota, R. Fukuda, 
 J. Hasegawa, M. Ishida, T. Nakajima, Y. Honda, O. Kitao, H. Nakai, 
 T. Vreven, K. Throssell, J. A. Montgomery, Jr., J. E. Peralta, 
 F. Ogliaro, M. J. Bearpark, J. J. Heyd, E. N. Brothers, K. N. Kudin, 
 V. N. Staroverov, T. A. Keith, R. Kobayashi, J. Normand, 
 K. Raghavachari, A. P. Rendell, J. C. Burant, S. S. Iyengar, 
 J. Tomasi, M. Cossi, J. M. Millam, M. Klene, C. Adamo, R. Cammi, 
 J. W. Ochterski, R. L. Martin, K. Morokuma, O. Farkas, 
 J. B. Foresman, and D. J. Fox, Gaussian, Inc., Wallingford CT, 2016.
 
 ******************************************
 Gaussian 16:  ES64L-G16RevA.03 25-Dec-2016
                22-Sep-2023 
 ******************************************
 %nprocshared=4
 Will use up to    4 processors via shared memory.
 %mem=4GB
 ----------------
 # 6-31g(d) wb97x
 ----------------
 1/38=1,172=1/1;
 2/12=2,17=6,18=5,40=1/2;
 3/5=1,6=6,7=1,11=2,25=1,30=1,74=-57/1,2,3;
 4//1;
 5/5=2,38=5/2;
 6/7=2,8=2,9=2,10=2,28=1/1;
 99/5=1,9=1/99;
 ---------------------------
 tmpdir/M3_frag_conf_0_1.gjf
 ---------------------------
 Symbolic Z-matrix:
 Charge =  0 Multiplicity = 1
 C                    -0.863     0.181     12.791 
 C                     0.35     -0.045     13.47 
 H                     1.21608   0.55816   13.26334 
 C                    -1.957    -0.636     13.054 
 H                    -2.89014  -0.46588   12.51733 
 C                    -1.891    -1.672     13.985 
 H                    -2.75467  -2.30073   14.17904 
 C                    -0.689    -1.895     14.657 
 C                     0.425    -1.09      14.415 
 H                    -1.0595    0.94422   12.05844 
 H                    -0.65353  -2.71444   15.38306 
 H                     1.31005  -1.33209   14.98722 
 
                          Input orientation:                          
 ---------------------------------------------------------------------
 Center     Atomic      Atomic             Coordinates (Angstroms)
 Number     Number       Type             X           Y           Z
 ---------------------------------------------------------------------
      1          6           0       -0.863000    0.181000   12.791000
      2          6           0        0.350000   -0.045000   13.470000
      3          1           0        1.216081    0.558161   13.263342
      4          6           0       -1.957000   -0.636000   13.054000
      5          1           0       -2.890135   -0.465884   12.517327
      6          6           0       -1.891000   -1.672000   13.985000
      7          1           0       -2.754669   -2.300728   14.179042
      8          6           0       -0.689000   -1.895000   14.657000
      9          6           0        0.425000   -1.090000   14.415000
     10          1           0       -1.059503    0.944217   12.058438
     11          1           0       -0.653530   -2.714439   15.383058
     12          1           0        1.310048   -1.332091   14.987216
 ---------------------------------------------------------------------
                    Distance matrix (angstroms):
                    1          2          3          4          5
     1  C    0.000000
     2  C    1.408363   0.000000
     3  H    2.165164   1.075457   0.000000
     4  C    1.390501   2.417558   3.396805   0.000000
     5  H    2.145375   3.403411   4.297234   1.089816   0.000000
     6  C    2.432289   2.816813   3.892090   1.394422   2.146404
     7  H    3.415267   3.902566   4.977812   2.161785   2.479173
     8  C    2.796785   2.431253   3.404352   2.400524   3.386085
     9  C    2.431411   1.410913   2.160685   2.780712   3.870504
    10  H    1.075993   2.226602   2.603673   2.072132   2.355882
    11  H    3.891813   3.434060   4.324182   3.382817   4.274437
    12  H    3.440196   2.209127   2.560005   3.859465   4.948960
                    6          7          8          9         10
     6  C    0.000000
     7  H    1.085760   0.000000
     8  C    1.395033   2.158714   0.000000
     9  C    2.426413   3.410547   1.395559   0.000000
    10  H    3.353747   4.230865   3.866646   3.448938   0.000000
    11  H    2.138359   2.456745   1.095399   2.176962   4.960209
    12  H    3.371452   4.255976   2.102880   1.081365   4.401601
                   11         12
    11  H    0.000000
    12  H    2.433765   0.000000
 Stoichiometry    C6H6
 Framework group  C1[X(C6H6)]
 Deg. of freedom    30
 Full point group                 C1      NOp   1
 Largest Abelian subgroup         C1      NOp   1
 Largest concise Abelian subgroup C1      NOp   1
                         Standard orientation:                         
 ---------------------------------------------------------------------
 Center     Atomic      Atomic             Coordinates (Angstroms)
 Number     Number       Type             X           Y           Z
 ---------------------------------------------------------------------
      1          6           0        1.401788    0.113206   -0.003264
      2          6           0        0.609548    1.277604    0.001224
      3          1           0        1.064599    2.251780    0.023969
      4          6           0        0.786008   -1.133505    0.001177
      5          1           0        1.402528   -2.032125    0.010423
      6          6           0       -0.602172   -1.265260   -0.001766
      7          1           0       -1.067359   -2.246314    0.001347
      8          6           0       -1.385970   -0.111242    0.002693
      9          6           0       -0.795879    1.153407   -0.003562
     10          1           0        2.476656    0.064537   -0.010407
     11          1           0       -2.474629   -0.232565    0.002955
     12          1           0       -1.481736    1.989432   -0.007299
 ---------------------------------------------------------------------
 Rotational constants (GHZ):           5.6939404           5.6513097           2.8363135
 Standard basis: 6-31G(d) (6D, 7F)
 There are   102 symmetry adapted cartesian basis functions of A   symmetry.
 There are   102 symmetry adapted basis functions of A   symmetry.
   102 basis functions,   192 primitive gaussians,   102 cartesian basis functions
    21 alpha electrons       21 beta electrons
       nuclear repulsion energy       202.9948695892 Hartrees.
 NAtoms=   12 NActive=   12 NUniq=   12 SFac= 1.00D+00 NAtFMM=   60 NAOKFM=F Big=F
 Integral buffers will be    131072 words long.
 Raffenetti 2 integral format.
 Two-electron integral symmetry is turned on.
 One-electron integrals computed using PRISM.
 NBasis=   102 RedAO= T EigKep=  5.39D-04  NBF=   102
 NBsUse=   102 1.00D-06 EigRej= -1.00D+00 NBFU=   102
 ExpMin= 1.61D-01 ExpMax= 3.05D+03 ExpMxC= 4.57D+02 IAcc=3 IRadAn=         5 AccDes= 0.00D+00
 Harris functional with IExCor= 4538 and IRadAn=       5 diagonalized for initial guess.
 HarFok:  IExCor= 4538 AccDes= 0.00D+00 IRadAn=         5 IDoV= 1 UseB2=F ITyADJ=14
 ICtDFT=  3500011 ScaDFX=  1.000000  1.000000  1.000000  1.000000
 FoFCou: FMM=F IPFlag=           0 FMFlag=      100000 FMFlg1=           0
         NFxFlg=           0 DoJE=T BraDBF=F KetDBF=T FulRan=T
         wScrn=  0.000000 ICntrl=       500 IOpCl=  0 I1Cent=   200000004 NGrid=           0
         NMat0=    1 NMatS0=      1 NMatT0=    0 NMatD0=    1 NMtDS0=    0 NMtDT0=    0
 Petite list used in FoFCou.
 Keep R1 ints in memory in canonical form, NReq=31301824.
 Requested convergence on RMS density matrix=1.00D-08 within 128 cycles.
 Requested convergence on MAX density matrix=1.00D-06.
 Requested convergence on             energy=1.00D-06.
 No special actions if energy rises.
 Integral accuracy reduced to 1.0D-05 until final iterations.
 Initial convergence to 1.0D-05 achieved.  Increase integral accuracy.
 SCF Done:  E(RwB97X) =  -232.175186066     A.U. after   12 cycles
            NFock= 12  Conv=0.94D-08     -V/T= 2.0101

 **********************************************************************

            Population analysis using the SCF density.

 **********************************************************************

 Orbital symmetries:
       Occupied  (A) (A) (A) (A) (A) (A) (A) (A) (A) (A) (A) (A)
                 (A) (A) (A) (A) (A) (A) (A) (A) (A)
       Virtual   (A) (A) (A) (A) (A) (A) (A) (A) (A) (A) (A) (A)
                 (A) (A) (A) (A) (A) (A) (A) (A) (A) (A) (A) (A)
                 (A) (A) (A) (A) (A) (A) (A) (A) (A) (A) (A) (A)
                 (A) (A) (A) (A) (A) (A) (A) (A) (A) (A) (A) (A)
                 (A) (A) (A) (A) (A) (A) (A) (A) (A) (A) (A) (A)
                 (A) (A) (A) (A) (A) (A) (A) (A) (A) (A) (A) (A)
                 (A) (A) (A) (A) (A) (A) (A) (A) (A)
 The electronic state is 1-A.
 Alpha  occ. eigenvalues --  -10.27740 -10.27399 -10.27241 -10.27169 -10.27040
 Alpha  occ. eigenvalues --  -10.26946  -0.97902  -0.87034  -0.86761  -0.72271
 Alpha  occ. eigenvalues --   -0.71366  -0.63472  -0.57070  -0.54657  -0.52509
 Alpha  occ. eigenvalues --   -0.52160  -0.47385  -0.43911  -0.43824  -0.33844
 Alpha  occ. eigenvalues --   -0.33674
 Alpha virt. eigenvalues --    0.08429   0.08886   0.18701   0.24306   0.24729
 Alpha virt. eigenvalues --    0.26994   0.27475   0.28564   0.29559   0.39684
 Alpha virt. eigenvalues --    0.40038   0.41259   0.41605   0.57707   0.63310
 Alpha virt. eigenvalues --    0.65079   0.65850   0.66408   0.69550   0.70839
 Alpha virt. eigenvalues --    0.70965   0.71634   0.71852   0.73733   0.73874
 Alpha virt. eigenvalues --    0.77690   0.77906   0.85625   0.96111   0.96282
 Alpha virt. eigenvalues --    0.96651   0.97782   0.98946   1.04373   1.05223
 Alpha virt. eigenvalues --    1.05919   1.07618   1.17744   1.19551   1.24568
 Alpha virt. eigenvalues --    1.26132   1.31847   1.36361   1.49505   1.54614
 Alpha virt. eigenvalues --    1.55540   1.58801   1.59119   1.61524   1.62214
 Alpha virt. eigenvalues --    1.86194   1.89473   1.96585   1.99870   2.08416
 Alpha virt. eigenvalues --    2.09014   2.16847   2.18132   2.25012   2.25388
 Alpha virt. eigenvalues --    2.25708   2.26506   2.40134   2.42110   2.42381
 Alpha virt. eigenvalues --    2.64952   2.65557   2.75747   2.79791   2.82008
 Alpha virt. eigenvalues --    2.83307   2.84005   2.86658   3.12957   3.50645
 Alpha virt. eigenvalues --    4.21075   4.24556   4.24756   4.45779   4.45890
 Alpha virt. eigenvalues --    4.78911
          Condensed to atoms (all electrons):
               1          2          3          4          5          6
     1  C    4.847862   0.550644  -0.036238   0.561008  -0.038629  -0.039585
     2  C    0.550644   4.864129   0.373774  -0.038412   0.004032  -0.035335
     3  H   -0.036238   0.373774   0.534468   0.003603  -0.000132   0.000398
     4  C    0.561008  -0.038412   0.003603   4.850000   0.372019   0.563686
     5  H   -0.038629   0.004032  -0.000132   0.372019   0.550183  -0.038078
     6  C   -0.039585  -0.035335   0.000398   0.563686  -0.038078   4.838735
     7  H    0.003897   0.000242   0.000011  -0.036966  -0.004072   0.372476
     8  C   -0.034792  -0.036677   0.003515  -0.040475   0.004163   0.561874
     9  C   -0.037601   0.551299  -0.036602  -0.035248   0.000336  -0.040488
    10  H    0.374637  -0.033239  -0.003011  -0.041198  -0.005207   0.004388
    11  H    0.000339   0.003580  -0.000119   0.004108  -0.000149  -0.038376
    12  H    0.003121  -0.034163  -0.003274   0.000331   0.000010   0.004115
               7          8          9         10         11         12
     1  C    0.003897  -0.034792  -0.037601   0.374637   0.000339   0.003121
     2  C    0.000242  -0.036677   0.551299  -0.033239   0.003580  -0.034163
     3  H    0.000011   0.003515  -0.036602  -0.003011  -0.000119  -0.003274
     4  C   -0.036966  -0.040475  -0.035248  -0.041198   0.004108   0.000331
     5  H   -0.004072   0.004163   0.000336  -0.005207  -0.000149   0.000010
     6  C    0.372476   0.561874  -0.040488   0.004388  -0.038376   0.004115
     7  H    0.541792  -0.037449   0.003905  -0.000156  -0.004130  -0.000147
     8  C   -0.037449   4.851888   0.557815   0.000308   0.371316  -0.039528
     9  C    0.003905   0.557815   4.854331   0.003056  -0.036194   0.374325
    10  H   -0.000156   0.000308   0.003056   0.538049   0.000010  -0.000091
    11  H   -0.004130   0.371316  -0.036194   0.000010   0.546326  -0.004328
    12  H   -0.000147  -0.039528   0.374325  -0.000091  -0.004328   0.537726
 Mulliken charges:
               1
     1  C   -0.154665
     2  C   -0.169875
     3  H    0.163607
     4  C   -0.162456
     5  H    0.155524
     6  C   -0.153809
     7  H    0.160598
     8  C   -0.161959
     9  C   -0.158936
    10  H    0.162454
    11  H    0.157615
    12  H    0.161902
 Sum of Mulliken charges =  -0.00000
 Mulliken charges with hydrogens summed into heavy atoms:
               1
     1  C    0.007789
     2  C   -0.006268
     4  C   -0.006932
     6  C    0.006788
     8  C   -0.004343
     9  C    0.002966
 Electronic spatial extent (au):  <R**2>=            458.6868
 Charge=             -0.0000 electrons
 Dipole moment (field-independent basis, Debye):
    X=             -0.0164    Y=             -0.0599    Z=              0.0141  Tot=              0.0637
 Quadrupole moment (field-independent basis, Debye-Ang):
   XX=            -30.8928   YY=            -31.1713   ZZ=            -38.9007
   XY=             -0.1402   XZ=              0.0156   YZ=              0.0149
 Traceless Quadrupole moment (field-independent basis, Debye-Ang):
   XX=              2.7621   YY=              2.4837   ZZ=             -5.2458
   XY=             -0.1402   XZ=              0.0156   YZ=              0.0149
 Octapole moment (field-independent basis, Debye-Ang**2):
  XXX=              0.0313  YYY=             -0.1445  ZZZ=              0.0195  XYY=             -0.2334
  XXY=             -0.4622  XXZ=             -0.0083  XZZ=              0.0240  YZZ=             -0.0598
  YYZ=              0.1356  XYZ=              0.0481
 Hexadecapole moment (field-independent basis, Debye-Ang**3):
 XXXX=           -266.2491 YYYY=           -266.3631 ZZZZ=            -40.5925 XXXY=             -2.1478
 XXXZ=             -0.0849 YYYX=              1.0977 YYYZ=              0.1360 ZZZX=              0.0171
 ZZZY=              0.0173 XXYY=            -88.4299 XXZZ=            -60.8709 YYZZ=            -60.5548
 XXYZ=             -0.0097 YYXZ=              0.2135 ZZXY=             -0.0248
 N-N= 2.029948695892D+02 E-N=-9.431011675074D+02  KE= 2.298475558337D+02
 1\1\GINC-NODE86\SP\RwB97X\6-31G(d)\C6H6\YANZ\22-Sep-2023\0\\# 6-31g(d)
  wb97x\\tmpdir/M3_frag_conf_0_1.gjf\\0,1\C,0,-0.863,0.181,12.791\C,0,0
 .35,-0.045,13.47\H,0,1.216081,0.558161,13.263342\C,0,-1.957,-0.636,13.
 054\H,0,-2.890135,-0.465884,12.517327\C,0,-1.891,-1.672,13.985\H,0,-2.
 754669,-2.300728,14.179042\C,0,-0.689,-1.895,14.657\C,0,0.425,-1.09,14
 .415\H,0,-1.05950275,0.94421668,12.05843775\H,0,-0.65352959,-2.7144389
 5,15.38305766\H,0,1.31004839,-1.33209139,14.98721601\\Version=ES64L-G1
 6RevA.03\State=1-A\HF=-232.1751861\RMSD=9.425e-09\Dipole=-0.0198155,-0
 .0151463,-0.0025137\Quadrupole=1.3962353,-0.3688152,-1.0274201,0.96003
 83,1.2877091,-2.6980848\PG=C01 [X(C6H6)]\\@


 ABSOLUTISM, OBSOLETISM -- IF IT WORKS, IT'S OUT OF DATE

                          -- STAFFORD BEER
 Job cpu time:       0 days  0 hours  0 minutes 36.4 seconds.
 Elapsed time:       0 days  0 hours  0 minutes  9.4 seconds.
 File lengths (MBytes):  RWF=     10 Int=      0 D2E=      0 Chk=      2 Scr=      1
 Normal termination of Gaussian 16 at Fri Sep 22 11:12:17 2023.
