 Entering Gaussian System, Link 0=g16
 Initial command:
 /share/apps/gaussian/g16/l1.exe "/tmp/55478.mgr/Gau-309548.inp" -scrdir="/tmp/55478.mgr/"
 Entering Link 1 = /share/apps/gaussian/g16/l1.exe PID=    309552.
  
 Copyright (c) 1988,1990,1992,1993,1995,1998,2003,2009,2016,
            Gaussian, Inc.  All Rights Reserved.
  
 This is part of the Gaussian(R) 16 program.  It is based on
 the Gaussian(R) 09 system (copyright 2009, Gaussian, Inc.),
 the Gaussian(R) 03 system (copyright 2003, Gaussian, Inc.),
 the Gaussian(R) 98 system (copyright 1998, Gaussian, Inc.),
 the Gaussian(R) 94 system (copyright 1995, Gaussian, Inc.),
 the Gaussian 92(TM) system (copyright 1992, Gaussian, Inc.),
 the Gaussian 90(TM) system (copyright 1990, Gaussian, Inc.),
 the Gaussian 88(TM) system (copyright 1988, Gaussian, Inc.),
 the Gaussian 86(TM) system (copyright 1986, Carnegie Mellon
 University), and the Gaussian 82(TM) system (copyright 1983,
 Carnegie Mellon University). Gaussian is a federally registered
 trademark of Gaussian, Inc.
  
 This software contains proprietary and confidential information,
 including trade secrets, belonging to Gaussian, Inc.
  
 This software is provided under written license and may be
 used, copied, transmitted, or stored only in accord with that
 written license.
  
 The following legend is applicable only to US Government
 contracts under FAR:
  
                    RESTRICTED RIGHTS LEGEND
  
 Use, reproduction and disclosure by the US Government is
 subject to restrictions as set forth in subparagraphs (a)
 and (c) of the Commercial Computer Software - Restricted
 Rights clause in FAR 52.227-19.
  
 Gaussian, Inc.
 340 Quinnipiac St., Bldg. 40, Wallingford CT 06492
  
  
 ---------------------------------------------------------------
 Warning -- This program may not be used in any manner that
 competes with the business of Gaussian, Inc. or will provide
 assistance to any competitor of Gaussian, Inc.  The licensee
 of this program is prohibited from giving any competitor of
 Gaussian, Inc. access to this program.  By using this program,
 the user acknowledges that Gaussian, Inc. is engaged in the
 business of creating and licensing software in the field of
 computational chemistry and represents and warrants to the
 licensee that it is not a competitor of Gaussian, Inc. and that
 it will not use this program in any manner prohibited above.
 ---------------------------------------------------------------
  

 Cite this work as:
 Gaussian 16, Revision A.03,
 M. J. Frisch, G. W. Trucks, H. B. Schlegel, G. E. Scuseria, 
 M. A. Robb, J. R. Cheeseman, G. Scalmani, V. Barone, 
 G. A. Petersson, H. Nakatsuji, X. Li, M. Caricato, A. V. Marenich, 
 J. Bloino, B. G. Janesko, R. Gomperts, B. Mennucci, H. P. Hratchian, 
 J. V. Ortiz, A. F. Izmaylov, J. L. Sonnenberg, D. Williams-Young, 
 F. Ding, F. Lipparini, F. Egidi, J. Goings, B. Peng, A. Petrone, 
 T. Henderson, D. Ranasinghe, V. G. Zakrzewski, J. Gao, N. Rega, 
 G. Zheng, W. Liang, M. Hada, M. Ehara, K. Toyota, R. Fukuda, 
 J. Hasegawa, M. Ishida, T. Nakajima, Y. Honda, O. Kitao, H. Nakai, 
 T. Vreven, K. Throssell, J. A. Montgomery, Jr., J. E. Peralta, 
 F. Ogliaro, M. J. Bearpark, J. J. Heyd, E. N. Brothers, K. N. Kudin, 
 V. N. Staroverov, T. A. Keith, R. Kobayashi, J. Normand, 
 K. Raghavachari, A. P. Rendell, J. C. Burant, S. S. Iyengar, 
 J. Tomasi, M. Cossi, J. M. Millam, M. Klene, C. Adamo, R. Cammi, 
 J. W. Ochterski, R. L. Martin, K. Morokuma, O. Farkas, 
 J. B. Foresman, and D. J. Fox, Gaussian, Inc., Wallingford CT, 2016.
 
 ******************************************
 Gaussian 16:  ES64L-G16RevA.03 25-Dec-2016
                22-Sep-2023 
 ******************************************
 %nprocshared=4
 Will use up to    4 processors via shared memory.
 %mem=4GB
 ----------------
 # 6-31g(d) wb97x
 ----------------
 1/38=1,172=1/1;
 2/12=2,17=6,18=5,40=1/2;
 3/5=1,6=6,7=1,11=2,25=1,30=1,74=-57/1,2,3;
 4//1;
 5/5=2,38=5/2;
 6/7=2,8=2,9=2,10=2,28=1/1;
 99/5=1,9=1/99;
 ---------------------------
 tmpdir/M3_frag_conf_1_3.gjf
 ---------------------------
 Symbolic Z-matrix:
 Charge =  0 Multiplicity = 1
 C                     4.6613    1.76635   13.33796 
 C                     3.84135   2.07997   12.25597 
 H                     2.98995   1.4545    12.01323 
 C                     4.13963   3.22443   11.51616 
 H                     3.52487   3.5227    10.67568 
 C                     5.23182   4.00547   11.8883 
 H                     5.49399   4.89598   11.32552 
 N                     6.02079   3.72138   12.93368 
 C                     5.71393   2.63896   13.64406 
 H                     6.32804   2.46365   14.52163 
 H                     4.4641    0.94042   13.99069 
 
                          Input orientation:                          
 ---------------------------------------------------------------------
 Center     Atomic      Atomic             Coordinates (Angstroms)
 Number     Number       Type             X           Y           Z
 ---------------------------------------------------------------------
      1          6           0        4.661296    1.766353   13.337957
      2          6           0        3.841348    2.079974   12.255967
      3          1           0        2.989947    1.454501   12.013233
      4          6           0        4.139626    3.224434   11.516163
      5          1           0        3.524871    3.522704   10.675684
      6          6           0        5.231822    4.005470   11.888302
      7          1           0        5.493993    4.895976   11.325523
      8          7           0        6.020791    3.721383   12.933676
      9          6           0        5.713933    2.638958   13.644062
     10          1           0        6.328037    2.463651   14.521631
     11          1           0        4.464102    0.940420   13.990686
 ---------------------------------------------------------------------
                    Distance matrix (angstroms):
                    1          2          3          4          5
     1  C    0.000000
     2  C    1.393333   0.000000
     3  H    2.155355   1.083983   0.000000
     4  C    2.391039   1.395015   2.168295   0.000000
     5  H    3.385842   2.163082   2.520446   1.083187   0.000000
     6  C    2.727755   2.403358   3.398390   1.393340   2.148763
     7  H    3.812848   3.395118   4.311257   2.159793   2.487087
     8  N    2.415329   2.811314   3.895124   2.407298   3.371590
     9  C    1.401137   2.397050   3.388605   2.710936   3.792659
    10  H    2.159939   3.385863   4.295730   3.794835   4.875515
    11  H    1.071031   2.166946   2.519470   3.383085   4.305762
                    6          7          8          9         10
     6  C    0.000000
     7  H    1.085566   0.000000
     8  N    1.340144   2.059937   0.000000
     9  C    2.276506   3.243166   1.330584   0.000000
    10  H    3.242425   4.102066   2.048876   1.085350   0.000000
    11  H    3.795253   4.879569   3.357724   2.137114   2.465034
                   11
    11  H    0.000000
 Stoichiometry    C5H5N
 Framework group  C1[X(C5H5N)]
 Deg. of freedom    27
 Full point group                 C1      NOp   1
 Largest Abelian subgroup         C1      NOp   1
 Largest concise Abelian subgroup C1      NOp   1
                         Standard orientation:                         
 ---------------------------------------------------------------------
 Center     Atomic      Atomic             Coordinates (Angstroms)
 Number     Number       Type             X           Y           Z
 ---------------------------------------------------------------------
      1          6           0       -1.297867    0.458116   -0.022230
      2          6           0       -0.243843    1.369186   -0.003235
      3          1           0       -0.440130    2.434997    0.019952
      4          6           0        1.057748    0.867319    0.004215
      5          1           0        1.912787    1.531566    0.035495
      6          6           0        1.251270   -0.512506   -0.001209
      7          1           0        2.252557   -0.931858   -0.005716
      8          7           0        0.246304   -1.399067   -0.007346
      9          6           0       -0.990502   -0.908587    0.006660
     10          1           0       -1.786606   -1.644010    0.064582
     11          1           0       -2.323571    0.761606    0.031901
 ---------------------------------------------------------------------
 Rotational constants (GHZ):           6.0734313           5.7951180           2.9659926
 Standard basis: 6-31G(d) (6D, 7F)
 There are   100 symmetry adapted cartesian basis functions of A   symmetry.
 There are   100 symmetry adapted basis functions of A   symmetry.
   100 basis functions,   188 primitive gaussians,   100 cartesian basis functions
    21 alpha electrons       21 beta electrons
       nuclear repulsion energy       206.1380702666 Hartrees.
 NAtoms=   11 NActive=   11 NUniq=   11 SFac= 1.00D+00 NAtFMM=   60 NAOKFM=F Big=F
 Integral buffers will be    131072 words long.
 Raffenetti 2 integral format.
 Two-electron integral symmetry is turned on.
 One-electron integrals computed using PRISM.
 NBasis=   100 RedAO= T EigKep=  8.80D-04  NBF=   100
 NBsUse=   100 1.00D-06 EigRej= -1.00D+00 NBFU=   100
 ExpMin= 1.61D-01 ExpMax= 4.17D+03 ExpMxC= 6.27D+02 IAcc=3 IRadAn=         5 AccDes= 0.00D+00
 Harris functional with IExCor= 4538 and IRadAn=       5 diagonalized for initial guess.
 HarFok:  IExCor= 4538 AccDes= 0.00D+00 IRadAn=         5 IDoV= 1 UseB2=F ITyADJ=14
 ICtDFT=  3500011 ScaDFX=  1.000000  1.000000  1.000000  1.000000
 FoFCou: FMM=F IPFlag=           0 FMFlag=      100000 FMFlg1=           0
         NFxFlg=           0 DoJE=T BraDBF=F KetDBF=T FulRan=T
         wScrn=  0.000000 ICntrl=       500 IOpCl=  0 I1Cent=   200000004 NGrid=           0
         NMat0=    1 NMatS0=      1 NMatT0=    0 NMatD0=    1 NMtDS0=    0 NMtDT0=    0
 Petite list used in FoFCou.
 Keep R1 ints in memory in canonical form, NReq=29209441.
 Requested convergence on RMS density matrix=1.00D-08 within 128 cycles.
 Requested convergence on MAX density matrix=1.00D-06.
 Requested convergence on             energy=1.00D-06.
 No special actions if energy rises.
 Integral accuracy reduced to 1.0D-05 until final iterations.
 Initial convergence to 1.0D-05 achieved.  Increase integral accuracy.
 SCF Done:  E(RwB97X) =  -248.212241604     A.U. after   14 cycles
            NFock= 14  Conv=0.69D-08     -V/T= 2.0096

 **********************************************************************

            Population analysis using the SCF density.

 **********************************************************************

 Orbital symmetries:
       Occupied  (A) (A) (A) (A) (A) (A) (A) (A) (A) (A) (A) (A)
                 (A) (A) (A) (A) (A) (A) (A) (A) (A)
       Virtual   (A) (A) (A) (A) (A) (A) (A) (A) (A) (A) (A) (A)
                 (A) (A) (A) (A) (A) (A) (A) (A) (A) (A) (A) (A)
                 (A) (A) (A) (A) (A) (A) (A) (A) (A) (A) (A) (A)
                 (A) (A) (A) (A) (A) (A) (A) (A) (A) (A) (A) (A)
                 (A) (A) (A) (A) (A) (A) (A) (A) (A) (A) (A) (A)
                 (A) (A) (A) (A) (A) (A) (A) (A) (A) (A) (A) (A)
                 (A) (A) (A) (A) (A) (A) (A)
 The electronic state is 1-A.
 Alpha  occ. eigenvalues --  -14.40620 -10.30638 -10.30575 -10.29611 -10.28347
 Alpha  occ. eigenvalues --  -10.28262  -1.07081  -0.93339  -0.88910  -0.74975
 Alpha  occ. eigenvalues --   -0.74764  -0.64520  -0.58563  -0.58303  -0.53500
 Alpha  occ. eigenvalues --   -0.51094  -0.51052  -0.46446  -0.38097  -0.35561
 Alpha  occ. eigenvalues --   -0.35087
 Alpha virt. eigenvalues --    0.06246   0.07585   0.19151   0.24014   0.25446
 Alpha virt. eigenvalues --    0.25633   0.27733   0.28046   0.33818   0.39160
 Alpha virt. eigenvalues --    0.41658   0.42249   0.55498   0.56001   0.62099
 Alpha virt. eigenvalues --    0.64576   0.68968   0.69223   0.69996   0.70376
 Alpha virt. eigenvalues --    0.70554   0.71431   0.75910   0.76567   0.78628
 Alpha virt. eigenvalues --    0.79763   0.94645   0.94893   0.96356   0.97037
 Alpha virt. eigenvalues --    0.97358   0.98601   1.03223   1.04544   1.07732
 Alpha virt. eigenvalues --    1.15182   1.17373   1.21985   1.26723   1.31664
 Alpha virt. eigenvalues --    1.35450   1.46510   1.49082   1.54972   1.58280
 Alpha virt. eigenvalues --    1.60312   1.62159   1.63228   1.81081   1.88501
 Alpha virt. eigenvalues --    1.91516   1.93186   2.03463   2.08620   2.15988
 Alpha virt. eigenvalues --    2.22939   2.24281   2.28044   2.28574   2.30522
 Alpha virt. eigenvalues --    2.39635   2.42550   2.49104   2.63054   2.64806
 Alpha virt. eigenvalues --    2.75386   2.77120   2.79921   2.82989   2.88225
 Alpha virt. eigenvalues --    2.89304   3.15976   3.48360   4.16140   4.22666
 Alpha virt. eigenvalues --    4.24861   4.35681   4.44678   4.70708
          Condensed to atoms (all electrons):
               1          2          3          4          5          6
     1  C    4.954011   0.550177  -0.037676  -0.037662   0.004234  -0.034012
     2  C    0.550177   4.836894   0.376991   0.546926  -0.037224  -0.036188
     3  H   -0.037676   0.376991   0.521289  -0.036653  -0.003890   0.003446
     4  C   -0.037662   0.546926  -0.036653   4.950507   0.366601   0.517494
     5  H    0.004234  -0.037224  -0.003890   0.366601   0.527926  -0.030591
     6  C   -0.034012  -0.036188   0.003446   0.517494  -0.030591   4.765934
     7  H   -0.000033   0.003279  -0.000115  -0.058458  -0.001358   0.392857
     8  N   -0.039711  -0.037142  -0.000139  -0.040062   0.003908   0.483085
     9  C    0.510804  -0.036597   0.003571  -0.033811   0.000122  -0.080119
    10  H   -0.060041   0.003453  -0.000123  -0.000032   0.000018   0.005076
    11  H    0.367907  -0.036838  -0.003846   0.004257  -0.000085   0.000132
               7          8          9         10         11
     1  C   -0.000033  -0.039711   0.510804  -0.060041   0.367907
     2  C    0.003279  -0.037142  -0.036597   0.003453  -0.036838
     3  H   -0.000115  -0.000139   0.003571  -0.000123  -0.003846
     4  C   -0.058458  -0.040062  -0.033811  -0.000032   0.004257
     5  H   -0.001358   0.003908   0.000122   0.000018  -0.000085
     6  C    0.392857   0.483085  -0.080119   0.005076   0.000132
     7  H    0.536570  -0.047767   0.004871  -0.000113   0.000017
     8  N   -0.047767   6.623689   0.491753  -0.048809   0.003990
     9  C    0.004871   0.491753   4.763884   0.392830  -0.031269
    10  H   -0.000113  -0.048809   0.392830   0.541111  -0.001362
    11  H    0.000017   0.003990  -0.031269  -0.001362   0.526036
 Mulliken charges:
               1
     1  C   -0.177998
     2  C   -0.133731
     3  H    0.177144
     4  C   -0.179109
     5  H    0.170340
     6  C    0.012885
     7  H    0.170249
     8  N   -0.392794
     9  C    0.013961
    10  H    0.167992
    11  H    0.171060
 Sum of Mulliken charges =  -0.00000
 Mulliken charges with hydrogens summed into heavy atoms:
               1
     1  C   -0.006937
     2  C    0.043413
     4  C   -0.008769
     6  C    0.183134
     8  N   -0.392794
     9  C    0.181953
 Electronic spatial extent (au):  <R**2>=            432.7671
 Charge=             -0.0000 electrons
 Dipole moment (field-independent basis, Debye):
    X=             -0.3922    Y=              2.1970    Z=              0.0986  Tot=              2.2339
 Quadrupole moment (field-independent basis, Debye-Ang):
   XX=            -28.9151   YY=            -35.3761   ZZ=            -37.0546
   XY=              1.1151   XZ=             -0.1350   YZ=              0.0364
 Traceless Quadrupole moment (field-independent basis, Debye-Ang):
   XX=              4.8668   YY=             -1.5942   ZZ=             -3.2727
   XY=              1.1151   XZ=             -0.1350   YZ=              0.0364
 Octapole moment (field-independent basis, Debye-Ang**2):
  XXX=              0.8674  YYY=             13.9940  ZZZ=              0.1062  XYY=             -3.1001
  XXY=             -1.3921  XXZ=              0.4854  XZZ=              0.1985  YZZ=             -1.3619
  YYZ=              0.3630  XYZ=              0.1575
 Hexadecapole moment (field-independent basis, Debye-Ang**3):
 XXXX=           -243.2812 YYYY=           -273.5921 ZZZZ=            -37.1371 XXXY=             -1.1304
 XXXZ=             -0.7884 YYYX=              6.6433 YYYZ=              0.2017 ZZZX=             -0.1645
 ZZZY=              0.0759 XXYY=            -80.1728 XXZZ=            -55.9126 YYZZ=            -54.5265
 XXYZ=              0.1204 YYXZ=             -0.2842 ZZXY=             -0.1561
 N-N= 2.061380702666D+02 E-N=-9.876603887873D+02  KE= 2.458577361847D+02
 1\1\GINC-NODE86\SP\RwB97X\6-31G(d)\C5H5N1\YANZ\22-Sep-2023\0\\# 6-31g(
 d) wb97x\\tmpdir/M3_frag_conf_1_3.gjf\\0,1\C,0,4.66129608,1.76635318,1
 3.3379566\C,0,3.84134755,2.07997406,12.25596679\H,0,2.9899465,1.454501
 16,12.01323319\C,0,4.13962602,3.22443353,11.51616318\H,0,3.52487135,3.
 52270432,10.67568384\C,0,5.23182154,4.00547044,11.88830167\H,0,5.49399
 259,4.89597587,11.32552287\N,0,6.02079091,3.72138334,12.93367587\C,0,5
 .71393315,2.63895777,13.6440615\H,0,6.32803716,2.46365106,14.52163136\
 H,0,4.46410161,0.94042011,13.99068581\\Version=ES64L-G16RevA.03\State=
 1-A\HF=-248.2122416\RMSD=6.887e-09\Dipole=-0.7027592,-0.4929941,-0.188
 5506\Quadrupole=-1.4826964,0.1315859,1.3511105,-0.2384607,1.1526317,-2
 .7387664\PG=C01 [X(C5H5N1)]\\@


 IF YOU GET CONFUSED, LOGIC OUT YOUR DILEMMA

           --  PICKER X-RAY CORP.    DIGITAL PRINTER MANUAL CA. 1964
 Job cpu time:       0 days  0 hours  0 minutes 39.0 seconds.
 Elapsed time:       0 days  0 hours  0 minutes 10.1 seconds.
 File lengths (MBytes):  RWF=     10 Int=      0 D2E=      0 Chk=      2 Scr=      1
 Normal termination of Gaussian 16 at Fri Sep 22 11:14:07 2023.
