 Entering Gaussian System, Link 0=g16
 Initial command:
 /share/apps/gaussian/g16/l1.exe "/tmp/55478.mgr/Gau-306413.inp" -scrdir="/tmp/55478.mgr/"
 Entering Link 1 = /share/apps/gaussian/g16/l1.exe PID=    306417.
  
 Copyright (c) 1988,1990,1992,1993,1995,1998,2003,2009,2016,
            Gaussian, Inc.  All Rights Reserved.
  
 This is part of the Gaussian(R) 16 program.  It is based on
 the Gaussian(R) 09 system (copyright 2009, Gaussian, Inc.),
 the Gaussian(R) 03 system (copyright 2003, Gaussian, Inc.),
 the Gaussian(R) 98 system (copyright 1998, Gaussian, Inc.),
 the Gaussian(R) 94 system (copyright 1995, Gaussian, Inc.),
 the Gaussian 92(TM) system (copyright 1992, Gaussian, Inc.),
 the Gaussian 90(TM) system (copyright 1990, Gaussian, Inc.),
 the Gaussian 88(TM) system (copyright 1988, Gaussian, Inc.),
 the Gaussian 86(TM) system (copyright 1986, Carnegie Mellon
 University), and the Gaussian 82(TM) system (copyright 1983,
 Carnegie Mellon University). Gaussian is a federally registered
 trademark of Gaussian, Inc.
  
 This software contains proprietary and confidential information,
 including trade secrets, belonging to Gaussian, Inc.
  
 This software is provided under written license and may be
 used, copied, transmitted, or stored only in accord with that
 written license.
  
 The following legend is applicable only to US Government
 contracts under FAR:
  
                    RESTRICTED RIGHTS LEGEND
  
 Use, reproduction and disclosure by the US Government is
 subject to restrictions as set forth in subparagraphs (a)
 and (c) of the Commercial Computer Software - Restricted
 Rights clause in FAR 52.227-19.
  
 Gaussian, Inc.
 340 Quinnipiac St., Bldg. 40, Wallingford CT 06492
  
  
 ---------------------------------------------------------------
 Warning -- This program may not be used in any manner that
 competes with the business of Gaussian, Inc. or will provide
 assistance to any competitor of Gaussian, Inc.  The licensee
 of this program is prohibited from giving any competitor of
 Gaussian, Inc. access to this program.  By using this program,
 the user acknowledges that Gaussian, Inc. is engaged in the
 business of creating and licensing software in the field of
 computational chemistry and represents and warrants to the
 licensee that it is not a competitor of Gaussian, Inc. and that
 it will not use this program in any manner prohibited above.
 ---------------------------------------------------------------
  

 Cite this work as:
 Gaussian 16, Revision A.03,
 M. J. Frisch, G. W. Trucks, H. B. Schlegel, G. E. Scuseria, 
 M. A. Robb, J. R. Cheeseman, G. Scalmani, V. Barone, 
 G. A. Petersson, H. Nakatsuji, X. Li, M. Caricato, A. V. Marenich, 
 J. Bloino, B. G. Janesko, R. Gomperts, B. Mennucci, H. P. Hratchian, 
 J. V. Ortiz, A. F. Izmaylov, J. L. Sonnenberg, D. Williams-Young, 
 F. Ding, F. Lipparini, F. Egidi, J. Goings, B. Peng, A. Petrone, 
 T. Henderson, D. Ranasinghe, V. G. Zakrzewski, J. Gao, N. Rega, 
 G. Zheng, W. Liang, M. Hada, M. Ehara, K. Toyota, R. Fukuda, 
 J. Hasegawa, M. Ishida, T. Nakajima, Y. Honda, O. Kitao, H. Nakai, 
 T. Vreven, K. Throssell, J. A. Montgomery, Jr., J. E. Peralta, 
 F. Ogliaro, M. J. Bearpark, J. J. Heyd, E. N. Brothers, K. N. Kudin, 
 V. N. Staroverov, T. A. Keith, R. Kobayashi, J. Normand, 
 K. Raghavachari, A. P. Rendell, J. C. Burant, S. S. Iyengar, 
 J. Tomasi, M. Cossi, J. M. Millam, M. Klene, C. Adamo, R. Cammi, 
 J. W. Ochterski, R. L. Martin, K. Morokuma, O. Farkas, 
 J. B. Foresman, and D. J. Fox, Gaussian, Inc., Wallingford CT, 2016.
 
 ******************************************
 Gaussian 16:  ES64L-G16RevA.03 25-Dec-2016
                22-Sep-2023 
 ******************************************
 %nprocshared=4
 Will use up to    4 processors via shared memory.
 %mem=4GB
 ----------------
 # 6-31g(d) wb97x
 ----------------
 1/38=1,172=1/1;
 2/12=2,17=6,18=5,40=1/2;
 3/5=1,6=6,7=1,11=2,25=1,30=1,74=-57/1,2,3;
 4//1;
 5/5=2,38=5/2;
 6/7=2,8=2,9=2,10=2,28=1/1;
 99/5=1,9=1/99;
 ---------------------------
 tmpdir/M3_frag_conf_0_3.gjf
 ---------------------------
 Symbolic Z-matrix:
 Charge =  0 Multiplicity = 1
 C                     4.617     1.869     13.447 
 C                     3.629     2.37      12.601 
 H                     2.64929   1.91648   12.55267 
 C                     3.938     3.465     11.778 
 H                     3.17545   3.85651   11.10979 
 C                     5.22      4.013     11.82 
 H                     5.51744   4.8491    11.19128 
 N                     6.153     3.528     12.658 
 C                     5.87      2.492     13.47 
 H                     6.68354   2.18709   14.11734 
 H                     4.42807   1.07852   14.06086 
 
                          Input orientation:                          
 ---------------------------------------------------------------------
 Center     Atomic      Atomic             Coordinates (Angstroms)
 Number     Number       Type             X           Y           Z
 ---------------------------------------------------------------------
      1          6           0        4.617000    1.869000   13.447000
      2          6           0        3.629000    2.370000   12.601000
      3          1           0        2.649289    1.916480   12.552668
      4          6           0        3.938000    3.465000   11.778000
      5          1           0        3.175449    3.856509   11.109786
      6          6           0        5.220000    4.013000   11.820000
      7          1           0        5.517438    4.849097   11.191275
      8          7           0        6.153000    3.528000   12.658000
      9          6           0        5.870000    2.492000   13.470000
     10          1           0        6.683544    2.187088   14.117341
     11          1           0        4.428066    1.078516   14.060855
 ---------------------------------------------------------------------
                    Distance matrix (angstroms):
                    1          2          3          4          5
     1  C    0.000000
     2  C    1.393865   0.000000
     3  H    2.161937   1.080671   0.000000
     4  C    2.407035   1.404220   2.158426   0.000000
     5  H    3.389813   2.153866   2.474362   1.086864   0.000000
     6  C    2.758165   2.416752   3.397168   1.394845   2.170042
     7  H    3.844485   3.420445   4.322026   2.180503   2.544953
     8  N    2.394598   2.777551   3.857989   2.384239   3.372046
     9  C    1.399524   2.406684   3.397896   2.746310   3.833158
    10  H    2.195710   3.415111   4.335510   3.826694   4.913154
    11  H    1.018518   2.106564   2.478076   3.338697   4.242063
                    6          7          8          9         10
     6  C    0.000000
     7  H    1.087577   0.000000
     8  N    1.344603   2.073769   0.000000
     9  C    2.336331   3.297392   1.346376   0.000000
    10  H    3.279282   4.124070   2.051633   1.083455   0.000000
    11  H    3.776213   4.861944   3.308077   2.103858   2.513822
                   11
    11  H    0.000000
 Stoichiometry    C5H5N
 Framework group  C1[X(C5H5N)]
 Deg. of freedom    27
 Full point group                 C1      NOp   1
 Largest Abelian subgroup         C1      NOp   1
 Largest concise Abelian subgroup C1      NOp   1
                         Standard orientation:                         
 ---------------------------------------------------------------------
 Center     Atomic      Atomic             Coordinates (Angstroms)
 Number     Number       Type             X           Y           Z
 ---------------------------------------------------------------------
      1          6           0       -1.202322    0.681051   -0.012617
      2          6           0        0.001757    1.383042    0.003661
      3          1           0        0.021313    2.463376   -0.014907
      4          6           0        1.204488    0.658324    0.011264
      5          1           0        2.147658    1.198398    0.015987
      6          6           0        1.164107   -0.735800   -0.008216
      7          1           0        2.064996   -1.344934   -0.021564
      8          7           0       -0.008100   -1.394483   -0.003195
      9          6           0       -1.172080   -0.717955    0.010514
     10          1           0       -2.058753   -1.340303    0.029751
     11          1           0       -2.094219    1.172879   -0.014540
 ---------------------------------------------------------------------
 Rotational constants (GHZ):           5.9367011           5.8636510           2.9502465
 Standard basis: 6-31G(d) (6D, 7F)
 There are   100 symmetry adapted cartesian basis functions of A   symmetry.
 There are   100 symmetry adapted basis functions of A   symmetry.
   100 basis functions,   188 primitive gaussians,   100 cartesian basis functions
    21 alpha electrons       21 beta electrons
       nuclear repulsion energy       205.6785585379 Hartrees.
 NAtoms=   11 NActive=   11 NUniq=   11 SFac= 1.00D+00 NAtFMM=   60 NAOKFM=F Big=F
 Integral buffers will be    131072 words long.
 Raffenetti 2 integral format.
 Two-electron integral symmetry is turned on.
 One-electron integrals computed using PRISM.
 NBasis=   100 RedAO= T EigKep=  8.61D-04  NBF=   100
 NBsUse=   100 1.00D-06 EigRej= -1.00D+00 NBFU=   100
 ExpMin= 1.61D-01 ExpMax= 4.17D+03 ExpMxC= 6.27D+02 IAcc=3 IRadAn=         5 AccDes= 0.00D+00
 Harris functional with IExCor= 4538 and IRadAn=       5 diagonalized for initial guess.
 HarFok:  IExCor= 4538 AccDes= 0.00D+00 IRadAn=         5 IDoV= 1 UseB2=F ITyADJ=14
 ICtDFT=  3500011 ScaDFX=  1.000000  1.000000  1.000000  1.000000
 FoFCou: FMM=F IPFlag=           0 FMFlag=      100000 FMFlg1=           0
         NFxFlg=           0 DoJE=T BraDBF=F KetDBF=T FulRan=T
         wScrn=  0.000000 ICntrl=       500 IOpCl=  0 I1Cent=   200000004 NGrid=           0
         NMat0=    1 NMatS0=      1 NMatT0=    0 NMatD0=    1 NMtDS0=    0 NMtDT0=    0
 Petite list used in FoFCou.
 Keep R1 ints in memory in canonical form, NReq=29209441.
 Requested convergence on RMS density matrix=1.00D-08 within 128 cycles.
 Requested convergence on MAX density matrix=1.00D-06.
 Requested convergence on             energy=1.00D-06.
 No special actions if energy rises.
 Integral accuracy reduced to 1.0D-05 until final iterations.
 Initial convergence to 1.0D-05 achieved.  Increase integral accuracy.
 SCF Done:  E(RwB97X) =  -248.207288644     A.U. after   14 cycles
            NFock= 14  Conv=0.70D-08     -V/T= 2.0096

 **********************************************************************

            Population analysis using the SCF density.

 **********************************************************************

 Orbital symmetries:
       Occupied  (A) (A) (A) (A) (A) (A) (A) (A) (A) (A) (A) (A)
                 (A) (A) (A) (A) (A) (A) (A) (A) (A)
       Virtual   (A) (A) (A) (A) (A) (A) (A) (A) (A) (A) (A) (A)
                 (A) (A) (A) (A) (A) (A) (A) (A) (A) (A) (A) (A)
                 (A) (A) (A) (A) (A) (A) (A) (A) (A) (A) (A) (A)
                 (A) (A) (A) (A) (A) (A) (A) (A) (A) (A) (A) (A)
                 (A) (A) (A) (A) (A) (A) (A) (A) (A) (A) (A) (A)
                 (A) (A) (A) (A) (A) (A) (A) (A) (A) (A) (A) (A)
                 (A) (A) (A) (A) (A) (A) (A)
 The electronic state is 1-A.
 Alpha  occ. eigenvalues --  -14.40410 -10.30780 -10.30776 -10.29479 -10.28427
 Alpha  occ. eigenvalues --  -10.27775  -1.06327  -0.92885  -0.89067  -0.75170
 Alpha  occ. eigenvalues --   -0.74520  -0.64512  -0.58872  -0.58290  -0.54038
 Alpha  occ. eigenvalues --   -0.50961  -0.50700  -0.46680  -0.37662  -0.35284
 Alpha  occ. eigenvalues --   -0.34699
 Alpha virt. eigenvalues --    0.06261   0.07471   0.19596   0.24390   0.25329
 Alpha virt. eigenvalues --    0.25534   0.27559   0.28272   0.33666   0.38854
 Alpha virt. eigenvalues --    0.41662   0.42428   0.55152   0.55622   0.62178
 Alpha virt. eigenvalues --    0.65154   0.68515   0.68848   0.69381   0.70319
 Alpha virt. eigenvalues --    0.70475   0.71423   0.75011   0.76601   0.78388
 Alpha virt. eigenvalues --    0.79913   0.94843   0.95347   0.96541   0.97352
 Alpha virt. eigenvalues --    0.98910   1.00281   1.03223   1.05600   1.07890
 Alpha virt. eigenvalues --    1.14090   1.16780   1.22051   1.25813   1.32996
 Alpha virt. eigenvalues --    1.35387   1.47197   1.49089   1.57372   1.58098
 Alpha virt. eigenvalues --    1.58935   1.61093   1.63402   1.82978   1.85657
 Alpha virt. eigenvalues --    1.92187   1.93124   2.04732   2.09450   2.15897
 Alpha virt. eigenvalues --    2.22335   2.23809   2.26939   2.27817   2.28931
 Alpha virt. eigenvalues --    2.39702   2.42847   2.46677   2.61564   2.65667
 Alpha virt. eigenvalues --    2.74135   2.78733   2.80078   2.82900   2.86654
 Alpha virt. eigenvalues --    2.88499   3.14724   3.49302   4.14723   4.22956
 Alpha virt. eigenvalues --    4.23892   4.35531   4.44384   4.70931
          Condensed to atoms (all electrons):
               1          2          3          4          5          6
     1  C    4.930059   0.552256  -0.037682  -0.036627   0.004415  -0.028915
     2  C    0.552256   4.848873   0.378857   0.544216  -0.038436  -0.037283
     3  H   -0.037682   0.378857   0.521300  -0.037392  -0.004110   0.003454
     4  C   -0.036627   0.544216  -0.037392   4.953422   0.363686   0.518235
     5  H    0.004415  -0.038436  -0.004110   0.363686   0.533141  -0.029849
     6  C   -0.028915  -0.037283   0.003454   0.518235  -0.029849   4.752591
     7  H   -0.000048   0.002878  -0.000110  -0.056461  -0.000791   0.392016
     8  N   -0.038622  -0.043510  -0.000142  -0.039384   0.004128   0.481665
     9  C    0.513720  -0.034959   0.003451  -0.030525   0.000165  -0.076556
    10  H   -0.055776   0.002826  -0.000105  -0.000054   0.000017   0.004324
    11  H    0.371701  -0.041800  -0.004384   0.005143  -0.000090   0.000117
               7          8          9         10         11
     1  C   -0.000048  -0.038622   0.513720  -0.055776   0.371701
     2  C    0.002878  -0.043510  -0.034959   0.002826  -0.041800
     3  H   -0.000110  -0.000142   0.003451  -0.000105  -0.004384
     4  C   -0.056461  -0.039384  -0.030525  -0.000054   0.005143
     5  H   -0.000791   0.004128   0.000165   0.000017  -0.000090
     6  C    0.392016   0.481665  -0.076556   0.004324   0.000117
     7  H    0.530067  -0.046138   0.004092  -0.000089   0.000019
     8  N   -0.046138   6.644807   0.484321  -0.047927   0.004887
     9  C    0.004092   0.484321   4.762027   0.392806  -0.033858
    10  H   -0.000089  -0.047927   0.392806   0.529187  -0.000960
    11  H    0.000019   0.004887  -0.033858  -0.000960   0.532906
 Mulliken charges:
               1
     1  C   -0.174482
     2  C   -0.133917
     3  H    0.176864
     4  C   -0.184259
     5  H    0.167725
     6  C    0.020202
     7  H    0.174566
     8  N   -0.404084
     9  C    0.015318
    10  H    0.175751
    11  H    0.166317
 Sum of Mulliken charges =  -0.00000
 Mulliken charges with hydrogens summed into heavy atoms:
               1
     1  C   -0.008165
     2  C    0.042946
     4  C   -0.016534
     6  C    0.194768
     8  N   -0.404084
     9  C    0.191069
 Electronic spatial extent (au):  <R**2>=            434.1366
 Charge=             -0.0000 electrons
 Dipole moment (field-independent basis, Debye):
    X=             -0.0185    Y=              2.1775    Z=             -0.0006  Tot=              2.1776
 Quadrupole moment (field-independent basis, Debye-Ang):
   XX=            -28.5616   YY=            -35.3045   ZZ=            -37.0657
   XY=             -0.0096   XZ=             -0.0447   YZ=             -0.0483
 Traceless Quadrupole moment (field-independent basis, Debye-Ang):
   XX=              5.0823   YY=             -1.6606   ZZ=             -3.4218
   XY=             -0.0096   XZ=             -0.0447   YZ=             -0.0483
 Octapole moment (field-independent basis, Debye-Ang**2):
  XXX=             -0.3091  YYY=             14.5657  ZZZ=             -0.0188  XYY=              0.0928
  XXY=             -2.6757  XXZ=              0.0266  XZZ=             -0.1817  YZZ=             -1.2669
  YYZ=             -0.0599  XYZ=              0.1570
 Hexadecapole moment (field-independent basis, Debye-Ang**3):
 XXXX=           -248.0231 YYYY=           -272.7965 ZZZZ=            -37.1554 XXXY=             -0.0321
 XXXZ=             -0.1995 YYYX=              0.0034 YYYZ=             -0.3237 ZZZX=             -0.0546
 ZZZY=             -0.0349 XXYY=            -77.6093 XXZZ=            -56.4771 YYZZ=            -54.1853
 XXYZ=             -0.0411 YYXZ=             -0.1230 ZZXY=             -0.1595
 N-N= 2.056785585379D+02 E-N=-9.867544354592D+02  KE= 2.458399625973D+02
 1\1\GINC-NODE86\SP\RwB97X\6-31G(d)\C5H5N1\YANZ\22-Sep-2023\0\\# 6-31g(
 d) wb97x\\tmpdir/M3_frag_conf_0_3.gjf\\0,1\C,0,4.617,1.869,13.447\C,0,
 3.629,2.37,12.601\H,0,2.649289,1.91648,12.552668\C,0,3.938,3.465,11.77
 8\H,0,3.175449,3.856509,11.109786\C,0,5.22,4.013,11.82\H,0,5.517438,4.
 849097,11.191275\N,0,6.153,3.528,12.658\C,0,5.87,2.492,13.47\H,0,6.683
 544,2.187088,14.117341\H,0,4.42806575,1.07851649,14.06085533\\Version=
 ES64L-G16RevA.03\State=1-A\HF=-248.2072886\RMSD=6.976e-09\Dipole=-0.77
 48068,-0.3653838,-0.0120414\Quadrupole=-0.9735443,0.3786191,0.5949252,
 -0.6556736,1.3158651,-2.8732296\PG=C01 [X(C5H5N1)]\\@


 ABSOLUTISM, OBSOLETISM -- IF IT WORKS, IT'S OUT OF DATE

                          -- STAFFORD BEER
 Job cpu time:       0 days  0 hours  0 minutes 39.5 seconds.
 Elapsed time:       0 days  0 hours  0 minutes 10.3 seconds.
 File lengths (MBytes):  RWF=     10 Int=      0 D2E=      0 Chk=      2 Scr=      1
 Normal termination of Gaussian 16 at Fri Sep 22 11:12:17 2023.
