 Entering Gaussian System, Link 0=g16
 Initial command:
 /share/apps/gaussian/g16/l1.exe "/tmp/55478.mgr/Gau-312690.inp" -scrdir="/tmp/55478.mgr/"
 Entering Link 1 = /share/apps/gaussian/g16/l1.exe PID=    312694.
  
 Copyright (c) 1988,1990,1992,1993,1995,1998,2003,2009,2016,
            Gaussian, Inc.  All Rights Reserved.
  
 This is part of the Gaussian(R) 16 program.  It is based on
 the Gaussian(R) 09 system (copyright 2009, Gaussian, Inc.),
 the Gaussian(R) 03 system (copyright 2003, Gaussian, Inc.),
 the Gaussian(R) 98 system (copyright 1998, Gaussian, Inc.),
 the Gaussian(R) 94 system (copyright 1995, Gaussian, Inc.),
 the Gaussian 92(TM) system (copyright 1992, Gaussian, Inc.),
 the Gaussian 90(TM) system (copyright 1990, Gaussian, Inc.),
 the Gaussian 88(TM) system (copyright 1988, Gaussian, Inc.),
 the Gaussian 86(TM) system (copyright 1986, Carnegie Mellon
 University), and the Gaussian 82(TM) system (copyright 1983,
 Carnegie Mellon University). Gaussian is a federally registered
 trademark of Gaussian, Inc.
  
 This software contains proprietary and confidential information,
 including trade secrets, belonging to Gaussian, Inc.
  
 This software is provided under written license and may be
 used, copied, transmitted, or stored only in accord with that
 written license.
  
 The following legend is applicable only to US Government
 contracts under FAR:
  
                    RESTRICTED RIGHTS LEGEND
  
 Use, reproduction and disclosure by the US Government is
 subject to restrictions as set forth in subparagraphs (a)
 and (c) of the Commercial Computer Software - Restricted
 Rights clause in FAR 52.227-19.
  
 Gaussian, Inc.
 340 Quinnipiac St., Bldg. 40, Wallingford CT 06492
  
  
 ---------------------------------------------------------------
 Warning -- This program may not be used in any manner that
 competes with the business of Gaussian, Inc. or will provide
 assistance to any competitor of Gaussian, Inc.  The licensee
 of this program is prohibited from giving any competitor of
 Gaussian, Inc. access to this program.  By using this program,
 the user acknowledges that Gaussian, Inc. is engaged in the
 business of creating and licensing software in the field of
 computational chemistry and represents and warrants to the
 licensee that it is not a competitor of Gaussian, Inc. and that
 it will not use this program in any manner prohibited above.
 ---------------------------------------------------------------
  

 Cite this work as:
 Gaussian 16, Revision A.03,
 M. J. Frisch, G. W. Trucks, H. B. Schlegel, G. E. Scuseria, 
 M. A. Robb, J. R. Cheeseman, G. Scalmani, V. Barone, 
 G. A. Petersson, H. Nakatsuji, X. Li, M. Caricato, A. V. Marenich, 
 J. Bloino, B. G. Janesko, R. Gomperts, B. Mennucci, H. P. Hratchian, 
 J. V. Ortiz, A. F. Izmaylov, J. L. Sonnenberg, D. Williams-Young, 
 F. Ding, F. Lipparini, F. Egidi, J. Goings, B. Peng, A. Petrone, 
 T. Henderson, D. Ranasinghe, V. G. Zakrzewski, J. Gao, N. Rega, 
 G. Zheng, W. Liang, M. Hada, M. Ehara, K. Toyota, R. Fukuda, 
 J. Hasegawa, M. Ishida, T. Nakajima, Y. Honda, O. Kitao, H. Nakai, 
 T. Vreven, K. Throssell, J. A. Montgomery, Jr., J. E. Peralta, 
 F. Ogliaro, M. J. Bearpark, J. J. Heyd, E. N. Brothers, K. N. Kudin, 
 V. N. Staroverov, T. A. Keith, R. Kobayashi, J. Normand, 
 K. Raghavachari, A. P. Rendell, J. C. Burant, S. S. Iyengar, 
 J. Tomasi, M. Cossi, J. M. Millam, M. Klene, C. Adamo, R. Cammi, 
 J. W. Ochterski, R. L. Martin, K. Morokuma, O. Farkas, 
 J. B. Foresman, and D. J. Fox, Gaussian, Inc., Wallingford CT, 2016.
 
 ******************************************
 Gaussian 16:  ES64L-G16RevA.03 25-Dec-2016
                22-Sep-2023 
 ******************************************
 %nprocshared=4
 Will use up to    4 processors via shared memory.
 %mem=4GB
 ----------------
 # 6-31g(d) wb97x
 ----------------
 1/38=1,172=1/1;
 2/12=2,17=6,18=5,40=1/2;
 3/5=1,6=6,7=1,11=2,25=1,30=1,74=-57/1,2,3;
 4//1;
 5/5=2,38=5/2;
 6/7=2,8=2,9=2,10=2,28=1/1;
 99/5=1,9=1/99;
 ---------------------------
 tmpdir/M3_frag_conf_2_1.gjf
 ---------------------------
 Symbolic Z-matrix:
 Charge =  0 Multiplicity = 1
 C                    -0.91443   0.28426   12.93727 
 C                     0.27931   0.06753   13.62969 
 H                     1.09942   0.76283   13.53567 
 C                    -1.98314  -0.59826   13.06642 
 H                    -2.89943  -0.45168   12.50255 
 C                    -1.8516   -1.70507   13.8944 
 H                    -2.68084  -2.407     13.97875 
 C                    -0.6738   -1.96579   14.58743 
 C                     0.40922  -1.07083   14.44371 
 H                    -1.09388   1.18407   12.30528 
 H                    -0.61584  -2.85313   15.22492 
 H                     1.32691  -1.30717   15.02075 
 
                          Input orientation:                          
 ---------------------------------------------------------------------
 Center     Atomic      Atomic             Coordinates (Angstroms)
 Number     Number       Type             X           Y           Z
 ---------------------------------------------------------------------
      1          6           0       -0.914425    0.284259   12.937270
      2          6           0        0.279315    0.067528   13.629689
      3          1           0        1.099418    0.762834   13.535670
      4          6           0       -1.983138   -0.598262   13.066416
      5          1           0       -2.899429   -0.451683   12.502550
      6          6           0       -1.851598   -1.705075   13.894396
      7          1           0       -2.680842   -2.406996   13.978754
      8          6           0       -0.673804   -1.965792   14.587433
      9          6           0        0.409220   -1.070832   14.443713
     10          1           0       -1.093877    1.184071   12.305279
     11          1           0       -0.615842   -2.853131   15.224925
     12          1           0        1.326906   -1.307174   15.020753
 ---------------------------------------------------------------------
                    Distance matrix (angstroms):
                    1          2          3          4          5
     1  C    0.000000
     2  C    1.396937   0.000000
     3  H    2.154688   1.079286   0.000000
     4  C    1.392002   2.424716   3.402195   0.000000
     5  H    2.161211   3.412395   4.305016   1.085827   0.000000
     6  C    2.398297   2.784417   3.863645   1.388483   2.146200
     7  H    3.383456   3.873970   4.953232   2.142585   2.459717
     8  C    2.800654   2.441331   3.419930   2.428576   3.404801
     9  C    2.420264   1.405479   2.159455   2.800650   3.885694
    10  H    1.114126   2.210517   2.549871   2.132329   2.444305
    11  H    3.894320   3.446205   4.344065   3.407798   4.288712
    12  H    3.449221   2.218628   2.557764   3.908757   4.993508
                    6          7          8          9         10
     6  C    0.000000
     7  H    1.089705   0.000000
     8  C    1.391212   2.143211   0.000000
     9  C    2.411495   3.398530   1.412285   0.000000
    10  H    3.383282   4.267873   3.912329   3.452069   0.000000
    11  H    2.148356   2.452795   1.094133   2.199462   5.005182
    12  H    3.395569   4.284555   2.150438   1.109496   4.409114
                   11         12
    11  H    0.000000
    12  H    2.491172   0.000000
 Stoichiometry    C6H6
 Framework group  C1[X(C6H6)]
 Deg. of freedom    30
 Full point group                 C1      NOp   1
 Largest Abelian subgroup         C1      NOp   1
 Largest concise Abelian subgroup C1      NOp   1
                         Standard orientation:                         
 ---------------------------------------------------------------------
 Center     Atomic      Atomic             Coordinates (Angstroms)
 Number     Number       Type             X           Y           Z
 ---------------------------------------------------------------------
      1          6           0        1.276057    0.559116    0.005728
      2          6           0        0.158320    1.396977   -0.003506
      3          1           0        0.279489    2.469392   -0.013689
      4          6           0        1.128760   -0.825064    0.001420
      5          1           0        1.994731   -1.478744    0.044061
      6          6           0       -0.148036   -1.370525   -0.010850
      7          1           0       -0.263087   -2.453990    0.007153
      8          6           0       -1.286479   -0.570928   -0.002865
      9          6           0       -1.128717    0.832448    0.011135
     10          1           0        2.321210    0.942155   -0.041306
     11          1           0       -2.271820   -1.046529   -0.008747
     12          1           0       -2.059951    1.435573    0.006148
 ---------------------------------------------------------------------
 Rotational constants (GHZ):           5.7035901           5.6394159           2.8358958
 Standard basis: 6-31G(d) (6D, 7F)
 There are   102 symmetry adapted cartesian basis functions of A   symmetry.
 There are   102 symmetry adapted basis functions of A   symmetry.
   102 basis functions,   192 primitive gaussians,   102 cartesian basis functions
    21 alpha electrons       21 beta electrons
       nuclear repulsion energy       202.8377956222 Hartrees.
 NAtoms=   12 NActive=   12 NUniq=   12 SFac= 1.00D+00 NAtFMM=   60 NAOKFM=F Big=F
 Integral buffers will be    131072 words long.
 Raffenetti 2 integral format.
 Two-electron integral symmetry is turned on.
 One-electron integrals computed using PRISM.
 NBasis=   102 RedAO= T EigKep=  5.40D-04  NBF=   102
 NBsUse=   102 1.00D-06 EigRej= -1.00D+00 NBFU=   102
 ExpMin= 1.61D-01 ExpMax= 3.05D+03 ExpMxC= 4.57D+02 IAcc=3 IRadAn=         5 AccDes= 0.00D+00
 Harris functional with IExCor= 4538 and IRadAn=       5 diagonalized for initial guess.
 HarFok:  IExCor= 4538 AccDes= 0.00D+00 IRadAn=         5 IDoV= 1 UseB2=F ITyADJ=14
 ICtDFT=  3500011 ScaDFX=  1.000000  1.000000  1.000000  1.000000
 FoFCou: FMM=F IPFlag=           0 FMFlag=      100000 FMFlg1=           0
         NFxFlg=           0 DoJE=T BraDBF=F KetDBF=T FulRan=T
         wScrn=  0.000000 ICntrl=       500 IOpCl=  0 I1Cent=   200000004 NGrid=           0
         NMat0=    1 NMatS0=      1 NMatT0=    0 NMatD0=    1 NMtDS0=    0 NMtDT0=    0
 Petite list used in FoFCou.
 Keep R1 ints in memory in canonical form, NReq=31301824.
 Requested convergence on RMS density matrix=1.00D-08 within 128 cycles.
 Requested convergence on MAX density matrix=1.00D-06.
 Requested convergence on             energy=1.00D-06.
 No special actions if energy rises.
 Integral accuracy reduced to 1.0D-05 until final iterations.
 Initial convergence to 1.0D-05 achieved.  Increase integral accuracy.
 SCF Done:  E(RwB97X) =  -232.175873566     A.U. after   13 cycles
            NFock= 13  Conv=0.62D-08     -V/T= 2.0105

 **********************************************************************

            Population analysis using the SCF density.

 **********************************************************************

 Orbital symmetries:
       Occupied  (A) (A) (A) (A) (A) (A) (A) (A) (A) (A) (A) (A)
                 (A) (A) (A) (A) (A) (A) (A) (A) (A)
       Virtual   (A) (A) (A) (A) (A) (A) (A) (A) (A) (A) (A) (A)
                 (A) (A) (A) (A) (A) (A) (A) (A) (A) (A) (A) (A)
                 (A) (A) (A) (A) (A) (A) (A) (A) (A) (A) (A) (A)
                 (A) (A) (A) (A) (A) (A) (A) (A) (A) (A) (A) (A)
                 (A) (A) (A) (A) (A) (A) (A) (A) (A) (A) (A) (A)
                 (A) (A) (A) (A) (A) (A) (A) (A) (A) (A) (A) (A)
                 (A) (A) (A) (A) (A) (A) (A) (A) (A)
 The electronic state is 1-A.
 Alpha  occ. eigenvalues --  -10.27853 -10.27559 -10.27494 -10.27377 -10.27039
 Alpha  occ. eigenvalues --  -10.26980  -0.97985  -0.86911  -0.86806  -0.71795
 Alpha  occ. eigenvalues --   -0.71540  -0.63313  -0.56739  -0.54701  -0.52344
 Alpha  occ. eigenvalues --   -0.52146  -0.47481  -0.44062  -0.43493  -0.33886
 Alpha  occ. eigenvalues --   -0.33740
 Alpha virt. eigenvalues --    0.08542   0.08779   0.18301   0.23999   0.24390
 Alpha virt. eigenvalues --    0.27027   0.27626   0.28038   0.29266   0.39445
 Alpha virt. eigenvalues --    0.40211   0.41049   0.41985   0.57570   0.63234
 Alpha virt. eigenvalues --    0.64727   0.66282   0.66896   0.69659   0.70844
 Alpha virt. eigenvalues --    0.70875   0.71271   0.71732   0.73543   0.73674
 Alpha virt. eigenvalues --    0.77715   0.77796   0.85574   0.94865   0.95466
 Alpha virt. eigenvalues --    0.96261   0.97466   0.98217   1.04622   1.05052
 Alpha virt. eigenvalues --    1.05257   1.07750   1.18480   1.19357   1.24799
 Alpha virt. eigenvalues --    1.25868   1.30988   1.36357   1.48386   1.53307
 Alpha virt. eigenvalues --    1.55547   1.59015   1.59131   1.61990   1.62701
 Alpha virt. eigenvalues --    1.85531   1.89679   1.95682   1.99335   2.06414
 Alpha virt. eigenvalues --    2.08583   2.17311   2.17524   2.25340   2.25628
 Alpha virt. eigenvalues --    2.25925   2.26148   2.40686   2.42026   2.42536
 Alpha virt. eigenvalues --    2.64354   2.65348   2.75956   2.79203   2.80232
 Alpha virt. eigenvalues --    2.84470   2.85210   2.85601   3.13119   3.50413
 Alpha virt. eigenvalues --    4.20924   4.24285   4.24676   4.45502   4.45683
 Alpha virt. eigenvalues --    4.78615
          Condensed to atoms (all electrons):
               1          2          3          4          5          6
     1  C    4.855530   0.555897  -0.036309   0.558783  -0.036585  -0.039375
     2  C    0.555897   4.849763   0.374620  -0.040812   0.003714  -0.035296
     3  H   -0.036309   0.374620   0.534352   0.003651  -0.000125   0.000298
     4  C    0.558783  -0.040812   0.003651   4.841153   0.373693   0.564599
     5  H   -0.036585   0.003714  -0.000125   0.373693   0.539426  -0.037180
     6  C   -0.039375  -0.035296   0.000298   0.564599  -0.037180   4.839909
     7  H    0.004328   0.000325   0.000011  -0.038520  -0.004420   0.371342
     8  C   -0.035312  -0.039802   0.003486  -0.040008   0.003849   0.563780
     9  C   -0.035788   0.554820  -0.036581  -0.035249   0.000240  -0.039368
    10  H    0.369037  -0.033865  -0.003527  -0.038494  -0.004220   0.004059
    11  H    0.000266   0.003269  -0.000111   0.003706  -0.000130  -0.036629
    12  H    0.003123  -0.033141  -0.003333   0.000399   0.000010   0.003791
               7          8          9         10         11         12
     1  C    0.004328  -0.035312  -0.035788   0.369037   0.000266   0.003123
     2  C    0.000325  -0.039802   0.554820  -0.033865   0.003269  -0.033141
     3  H    0.000011   0.003486  -0.036581  -0.003527  -0.000111  -0.003333
     4  C   -0.038520  -0.040008  -0.035249  -0.038494   0.003706   0.000399
     5  H   -0.004420   0.003849   0.000240  -0.004220  -0.000130   0.000010
     6  C    0.371342   0.563780  -0.039368   0.004059  -0.036629   0.003791
     7  H    0.551170  -0.038835   0.004194  -0.000153  -0.004321  -0.000145
     8  C   -0.038835   4.854511   0.550035   0.000369   0.372384  -0.037615
     9  C    0.004194   0.550035   4.868045   0.003205  -0.034561   0.369178
    10  H   -0.000153   0.000369   0.003205   0.545699   0.000010  -0.000095
    11  H   -0.004321   0.372384  -0.034561   0.000010   0.536864  -0.003470
    12  H   -0.000145  -0.037615   0.369178  -0.000095  -0.003470   0.541396
 Mulliken charges:
               1
     1  C   -0.163594
     2  C   -0.159491
     3  H    0.163568
     4  C   -0.152901
     5  H    0.161729
     6  C   -0.159931
     7  H    0.155024
     8  C   -0.156840
     9  C   -0.168168
    10  H    0.157977
    11  H    0.162724
    12  H    0.159903
 Sum of Mulliken charges =  -0.00000
 Mulliken charges with hydrogens summed into heavy atoms:
               1
     1  C   -0.005616
     2  C    0.004076
     4  C    0.008828
     6  C   -0.004907
     8  C    0.005884
     9  C   -0.008266
 Electronic spatial extent (au):  <R**2>=            459.4082
 Charge=             -0.0000 electrons
 Dipole moment (field-independent basis, Debye):
    X=             -0.0040    Y=             -0.0566    Z=             -0.0044  Tot=              0.0570
 Quadrupole moment (field-independent basis, Debye-Ang):
   XX=            -30.8902   YY=            -31.2587   ZZ=            -38.9532
   XY=             -0.0286   XZ=             -0.0049   YZ=             -0.1291
 Traceless Quadrupole moment (field-independent basis, Debye-Ang):
   XX=              2.8105   YY=              2.4420   ZZ=             -5.2525
   XY=             -0.0286   XZ=             -0.0049   YZ=             -0.1291
 Octapole moment (field-independent basis, Debye-Ang**2):
  XXX=             -0.1328  YYY=             -0.0697  ZZZ=             -0.0046  XYY=             -0.0158
  XXY=             -0.5139  XXZ=             -0.0865  XZZ=              0.0763  YZZ=             -0.1186
  YYZ=              0.0414  XYZ=             -0.2180
 Hexadecapole moment (field-independent basis, Debye-Ang**3):
 XXXX=           -266.7420 YYYY=           -266.1685 ZZZZ=            -40.6761 XXXY=             -0.3903
 XXXZ=             -0.1194 YYYX=              0.1144 YYYZ=             -0.6104 ZZZX=              0.0024
 ZZZY=             -0.1393 XXYY=            -89.2043 XXZZ=            -61.4125 YYZZ=            -60.5639
 XXYZ=             -0.4561 YYXZ=              0.0811 ZZXY=             -0.0097
 N-N= 2.028377956222D+02 E-N=-9.427274308874D+02  KE= 2.297736413022D+02
 1\1\GINC-NODE86\SP\RwB97X\6-31G(d)\C6H6\YANZ\22-Sep-2023\0\\# 6-31g(d)
  wb97x\\tmpdir/M3_frag_conf_2_1.gjf\\0,1\C,0,-0.91442528,0.28425905,12
 .93727002\C,0,0.2793149,0.06752792,13.62968917\H,0,1.09941751,0.762834
 43,13.53567003\C,0,-1.983138,-0.59826238,13.06641634\H,0,-2.89942921,-
 0.45168318,12.50254959\C,0,-1.85159771,-1.70507455,13.89439569\H,0,-2.
 68084183,-2.40699646,13.97875358\C,0,-0.67380406,-1.9657915,14.5874327
 2\C,0,0.40921987,-1.07083185,14.44371251\H,0,-1.09387672,1.18407106,12
 .30527922\H,0,-0.61584172,-2.85313085,15.22492474\H,0,1.32690614,-1.30
 717378,15.02075253\\Version=ES64L-G16RevA.03\State=1-A\HF=-232.1758736
 \RMSD=6.230e-09\Dipole=-0.0181524,-0.0128218,0.0028756\Quadrupole=1.14
 94025,0.374291,-1.5236935,0.9826588,1.6870685,-2.4005327\PG=C01 [X(C6H
 6)]\\@


 IT IS A SIMPLE TASK TO MAKE THINGS COMPLEX,
 BUT A COMPLEX TASK TO MAKE THEM SIMPLE.
 Job cpu time:       0 days  0 hours  0 minutes 39.5 seconds.
 Elapsed time:       0 days  0 hours  0 minutes 10.2 seconds.
 File lengths (MBytes):  RWF=     10 Int=      0 D2E=      0 Chk=      2 Scr=      1
 Normal termination of Gaussian 16 at Fri Sep 22 11:15:57 2023.
