 Entering Gaussian System, Link 0=g16
 Initial command:
 /share/apps/gaussian/g16/l1.exe "/tmp/55478.mgr/Gau-312691.inp" -scrdir="/tmp/55478.mgr/"
 Entering Link 1 = /share/apps/gaussian/g16/l1.exe PID=    312696.
  
 Copyright (c) 1988,1990,1992,1993,1995,1998,2003,2009,2016,
            Gaussian, Inc.  All Rights Reserved.
  
 This is part of the Gaussian(R) 16 program.  It is based on
 the Gaussian(R) 09 system (copyright 2009, Gaussian, Inc.),
 the Gaussian(R) 03 system (copyright 2003, Gaussian, Inc.),
 the Gaussian(R) 98 system (copyright 1998, Gaussian, Inc.),
 the Gaussian(R) 94 system (copyright 1995, Gaussian, Inc.),
 the Gaussian 92(TM) system (copyright 1992, Gaussian, Inc.),
 the Gaussian 90(TM) system (copyright 1990, Gaussian, Inc.),
 the Gaussian 88(TM) system (copyright 1988, Gaussian, Inc.),
 the Gaussian 86(TM) system (copyright 1986, Carnegie Mellon
 University), and the Gaussian 82(TM) system (copyright 1983,
 Carnegie Mellon University). Gaussian is a federally registered
 trademark of Gaussian, Inc.
  
 This software contains proprietary and confidential information,
 including trade secrets, belonging to Gaussian, Inc.
  
 This software is provided under written license and may be
 used, copied, transmitted, or stored only in accord with that
 written license.
  
 The following legend is applicable only to US Government
 contracts under FAR:
  
                    RESTRICTED RIGHTS LEGEND
  
 Use, reproduction and disclosure by the US Government is
 subject to restrictions as set forth in subparagraphs (a)
 and (c) of the Commercial Computer Software - Restricted
 Rights clause in FAR 52.227-19.
  
 Gaussian, Inc.
 340 Quinnipiac St., Bldg. 40, Wallingford CT 06492
  
  
 ---------------------------------------------------------------
 Warning -- This program may not be used in any manner that
 competes with the business of Gaussian, Inc. or will provide
 assistance to any competitor of Gaussian, Inc.  The licensee
 of this program is prohibited from giving any competitor of
 Gaussian, Inc. access to this program.  By using this program,
 the user acknowledges that Gaussian, Inc. is engaged in the
 business of creating and licensing software in the field of
 computational chemistry and represents and warrants to the
 licensee that it is not a competitor of Gaussian, Inc. and that
 it will not use this program in any manner prohibited above.
 ---------------------------------------------------------------
  

 Cite this work as:
 Gaussian 16, Revision A.03,
 M. J. Frisch, G. W. Trucks, H. B. Schlegel, G. E. Scuseria, 
 M. A. Robb, J. R. Cheeseman, G. Scalmani, V. Barone, 
 G. A. Petersson, H. Nakatsuji, X. Li, M. Caricato, A. V. Marenich, 
 J. Bloino, B. G. Janesko, R. Gomperts, B. Mennucci, H. P. Hratchian, 
 J. V. Ortiz, A. F. Izmaylov, J. L. Sonnenberg, D. Williams-Young, 
 F. Ding, F. Lipparini, F. Egidi, J. Goings, B. Peng, A. Petrone, 
 T. Henderson, D. Ranasinghe, V. G. Zakrzewski, J. Gao, N. Rega, 
 G. Zheng, W. Liang, M. Hada, M. Ehara, K. Toyota, R. Fukuda, 
 J. Hasegawa, M. Ishida, T. Nakajima, Y. Honda, O. Kitao, H. Nakai, 
 T. Vreven, K. Throssell, J. A. Montgomery, Jr., J. E. Peralta, 
 F. Ogliaro, M. J. Bearpark, J. J. Heyd, E. N. Brothers, K. N. Kudin, 
 V. N. Staroverov, T. A. Keith, R. Kobayashi, J. Normand, 
 K. Raghavachari, A. P. Rendell, J. C. Burant, S. S. Iyengar, 
 J. Tomasi, M. Cossi, J. M. Millam, M. Klene, C. Adamo, R. Cammi, 
 J. W. Ochterski, R. L. Martin, K. Morokuma, O. Farkas, 
 J. B. Foresman, and D. J. Fox, Gaussian, Inc., Wallingford CT, 2016.
 
 ******************************************
 Gaussian 16:  ES64L-G16RevA.03 25-Dec-2016
                22-Sep-2023 
 ******************************************
 %nprocshared=4
 Will use up to    4 processors via shared memory.
 %mem=4GB
 ----------------
 # 6-31g(d) wb97x
 ----------------
 1/38=1,172=1/1;
 2/12=2,17=6,18=5,40=1/2;
 3/5=1,6=6,7=1,11=2,25=1,30=1,74=-57/1,2,3;
 4//1;
 5/5=2,38=5/2;
 6/7=2,8=2,9=2,10=2,28=1/1;
 99/5=1,9=1/99;
 ---------------------------
 tmpdir/M3_frag_conf_2_2.gjf
 ---------------------------
 Symbolic Z-matrix:
 Charge =  0 Multiplicity = 1
 C                     2.84622  -0.83838   15.11188 
 N                     3.14069   0.09389   14.19974 
 N                     3.68835  -1.29909   16.04906 
 C                     4.93029  -0.80439   16.04573 
 H                     5.57036  -1.15304   16.84732 
 C                     5.36016   0.14245   15.1319 
 H                     6.37724   0.51045   15.13854 
 C                     4.38478   0.60588   14.23922 
 H                     1.8484   -1.25743   15.16373 
 H                     4.57577   1.42654   13.58061 
 
                          Input orientation:                          
 ---------------------------------------------------------------------
 Center     Atomic      Atomic             Coordinates (Angstroms)
 Number     Number       Type             X           Y           Z
 ---------------------------------------------------------------------
      1          6           0        2.846223   -0.838375   15.111876
      2          7           0        3.140685    0.093889   14.199739
      3          7           0        3.688354   -1.299089   16.049064
      4          6           0        4.930289   -0.804395   16.045731
      5          1           0        5.570361   -1.153038   16.847321
      6          6           0        5.360162    0.142446   15.131904
      7          1           0        6.377238    0.510454   15.138542
      8          6           0        4.384783    0.605881   14.239217
      9          1           0        1.848398   -1.257431   15.163732
     10          1           0        4.575768    1.426542   13.580609
 ---------------------------------------------------------------------
                    Distance matrix (angstroms):
                    1          2          3          4          5
     1  C    0.000000
     2  N    1.337094   0.000000
     3  N    1.341552   2.379145   0.000000
     4  C    2.283981   2.723469   1.336838   0.000000
     5  H    3.245259   3.803662   2.049511   1.083416   0.000000
     6  C    2.698574   2.407772   2.390428   1.384333   2.159888
     7  H    3.779963   3.395607   3.366540   2.155338   2.517574
     8  C    2.283545   1.345910   2.718358   2.355833   3.361784
     9  H    1.083490   2.103653   2.042299   3.237471   4.086365
    10  H    3.235113   2.053959   3.782835   3.343590   4.279586
                    6          7          8          9         10
     6  C    0.000000
     7  H    1.081627   0.000000
     8  C    1.401080   2.188096   0.000000
     9  H    3.780629   4.861732   3.280230   0.000000
    10  H    2.161179   2.551797   1.069451   4.141079   0.000000
 Stoichiometry    C4H4N2
 Framework group  C1[X(C4H4N2)]
 Deg. of freedom    24
 Full point group                 C1      NOp   1
 Largest Abelian subgroup         C1      NOp   1
 Largest concise Abelian subgroup C1      NOp   1
                         Standard orientation:                         
 ---------------------------------------------------------------------
 Center     Atomic      Atomic             Coordinates (Angstroms)
 Number     Number       Type             X           Y           Z
 ---------------------------------------------------------------------
      1          6           0       -1.328346   -0.056666   -0.012550
      2          7           0       -0.772642    1.159480   -0.013546
      3          7           0       -0.654760   -1.216614    0.011220
      4          6           0        0.680079   -1.144137    0.001862
      5          1           0        1.196476   -2.093527    0.077898
      6          6           0        1.367787    0.056895   -0.029103
      7          1           0        2.448644    0.086375   -0.057302
      8          6           0        0.572024    1.209174    0.016096
      9          1           0       -2.406058   -0.165929    0.010883
     10          1           0        1.003486    2.181423    0.126985
 ---------------------------------------------------------------------
 Rotational constants (GHZ):           6.1914482           6.1382702           3.0840593
 Standard basis: 6-31G(d) (6D, 7F)
 There are    98 symmetry adapted cartesian basis functions of A   symmetry.
 There are    98 symmetry adapted basis functions of A   symmetry.
    98 basis functions,   184 primitive gaussians,    98 cartesian basis functions
    21 alpha electrons       21 beta electrons
       nuclear repulsion energy       208.6273940509 Hartrees.
 NAtoms=   10 NActive=   10 NUniq=   10 SFac= 1.00D+00 NAtFMM=   60 NAOKFM=F Big=F
 Integral buffers will be    131072 words long.
 Raffenetti 2 integral format.
 Two-electron integral symmetry is turned on.
 One-electron integrals computed using PRISM.
 NBasis=    98 RedAO= T EigKep=  1.49D-03  NBF=    98
 NBsUse=    98 1.00D-06 EigRej= -1.00D+00 NBFU=    98
 ExpMin= 1.61D-01 ExpMax= 4.17D+03 ExpMxC= 6.27D+02 IAcc=3 IRadAn=         5 AccDes= 0.00D+00
 Harris functional with IExCor= 4538 and IRadAn=       5 diagonalized for initial guess.
 HarFok:  IExCor= 4538 AccDes= 0.00D+00 IRadAn=         5 IDoV= 1 UseB2=F ITyADJ=14
 ICtDFT=  3500011 ScaDFX=  1.000000  1.000000  1.000000  1.000000
 FoFCou: FMM=F IPFlag=           0 FMFlag=      100000 FMFlg1=           0
         NFxFlg=           0 DoJE=T BraDBF=F KetDBF=T FulRan=T
         wScrn=  0.000000 ICntrl=       500 IOpCl=  0 I1Cent=   200000004 NGrid=           0
         NMat0=    1 NMatS0=      1 NMatT0=    0 NMatD0=    1 NMtDS0=    0 NMtDT0=    0
 Petite list used in FoFCou.
 Keep R1 ints in memory in canonical form, NReq=27222676.
 Requested convergence on RMS density matrix=1.00D-08 within 128 cycles.
 Requested convergence on MAX density matrix=1.00D-06.
 Requested convergence on             energy=1.00D-06.
 No special actions if energy rises.
 Integral accuracy reduced to 1.0D-05 until final iterations.
 Initial convergence to 1.0D-05 achieved.  Increase integral accuracy.
 SCF Done:  E(RwB97X) =  -264.247928697     A.U. after   14 cycles
            NFock= 14  Conv=0.78D-08     -V/T= 2.0095

 **********************************************************************

            Population analysis using the SCF density.

 **********************************************************************

 Orbital symmetries:
       Occupied  (A) (A) (A) (A) (A) (A) (A) (A) (A) (A) (A) (A)
                 (A) (A) (A) (A) (A) (A) (A) (A) (A)
       Virtual   (A) (A) (A) (A) (A) (A) (A) (A) (A) (A) (A) (A)
                 (A) (A) (A) (A) (A) (A) (A) (A) (A) (A) (A) (A)
                 (A) (A) (A) (A) (A) (A) (A) (A) (A) (A) (A) (A)
                 (A) (A) (A) (A) (A) (A) (A) (A) (A) (A) (A) (A)
                 (A) (A) (A) (A) (A) (A) (A) (A) (A) (A) (A) (A)
                 (A) (A) (A) (A) (A) (A) (A) (A) (A) (A) (A) (A)
                 (A) (A) (A) (A) (A)
 The electronic state is 1-A.
 Alpha  occ. eigenvalues --  -14.42215 -14.41840 -10.34378 -10.33241 -10.32884
 Alpha  occ. eigenvalues --  -10.29729  -1.11846  -1.01633  -0.92851  -0.78211
 Alpha  occ. eigenvalues --   -0.78066  -0.66030  -0.62374  -0.58736  -0.54311
 Alpha  occ. eigenvalues --   -0.52936  -0.52204  -0.41302  -0.40778  -0.38216
 Alpha  occ. eigenvalues --   -0.35186
 Alpha virt. eigenvalues --    0.04416   0.05606   0.19848   0.23569   0.24818
 Alpha virt. eigenvalues --    0.25221   0.26858   0.32656   0.34035   0.42172
 Alpha virt. eigenvalues --    0.43455   0.47846   0.51326   0.60663   0.65034
 Alpha virt. eigenvalues --    0.68166   0.68331   0.69076   0.69698   0.72375
 Alpha virt. eigenvalues --    0.72989   0.76238   0.78320   0.78588   0.90568
 Alpha virt. eigenvalues --    0.93155   0.94016   0.96026   0.96860   0.97162
 Alpha virt. eigenvalues --    0.99508   1.03530   1.05565   1.06394   1.17263
 Alpha virt. eigenvalues --    1.19731   1.27883   1.30341   1.34432   1.46397
 Alpha virt. eigenvalues --    1.49725   1.54096   1.57206   1.59703   1.62356
 Alpha virt. eigenvalues --    1.63078   1.70715   1.83043   1.91418   1.94039
 Alpha virt. eigenvalues --    1.98757   2.04094   2.21206   2.23759   2.25516
 Alpha virt. eigenvalues --    2.26695   2.27839   2.31841   2.42919   2.43997
 Alpha virt. eigenvalues --    2.49493   2.60616   2.62799   2.71122   2.75316
 Alpha virt. eigenvalues --    2.81664   2.82721   2.89590   2.93473   3.15516
 Alpha virt. eigenvalues --    3.44965   4.00105   4.14896   4.27989   4.32269
 Alpha virt. eigenvalues --    4.35777   4.61217
          Condensed to atoms (all electrons):
               1          2          3          4          5          6
     1  C    4.687662   0.451264   0.459285  -0.066804   0.004805  -0.033081
     2  N    0.451264   6.688000  -0.061552  -0.030044  -0.000397  -0.039015
     3  N    0.459285  -0.061552   6.684612   0.480919  -0.047809  -0.040720
     4  C   -0.066804  -0.030044   0.480919   4.745116   0.395513   0.496701
     5  H    0.004805  -0.000397  -0.047809   0.395513   0.522187  -0.059545
     6  C   -0.033081  -0.039015  -0.040720   0.496701  -0.059545   5.069087
     7  H    0.000201   0.003051   0.003360  -0.028833  -0.001351   0.362140
     8  C   -0.065857   0.476276  -0.031707  -0.032538   0.003337   0.493832
     9  H    0.406058  -0.055467  -0.062431   0.005250  -0.000112  -0.000528
    10  H    0.004652  -0.046804  -0.000345   0.003358  -0.000121  -0.057892
               7          8          9         10
     1  C    0.000201  -0.065857   0.406058   0.004652
     2  N    0.003051   0.476276  -0.055467  -0.046804
     3  N    0.003360  -0.031707  -0.062431  -0.000345
     4  C   -0.028833  -0.032538   0.005250   0.003358
     5  H   -0.001351   0.003337  -0.000112  -0.000121
     6  C    0.362140   0.493832  -0.000528  -0.057892
     7  H    0.503970  -0.027753   0.000021  -0.001182
     8  C   -0.027753   4.752862   0.004510   0.396019
     9  H    0.000021   0.004510   0.514017  -0.000083
    10  H   -0.001182   0.396019  -0.000083   0.515324
 Mulliken charges:
               1
     1  C    0.151815
     2  N   -0.385312
     3  N   -0.383612
     4  C    0.031362
     5  H    0.183492
     6  C   -0.190980
     7  H    0.186376
     8  C    0.031018
     9  H    0.188765
    10  H    0.187075
 Sum of Mulliken charges =  -0.00000
 Mulliken charges with hydrogens summed into heavy atoms:
               1
     1  C    0.340581
     2  N   -0.385312
     3  N   -0.383612
     4  C    0.214854
     6  C   -0.004604
     8  C    0.218093
 Electronic spatial extent (au):  <R**2>=            409.8101
 Charge=             -0.0000 electrons
 Dipole moment (field-independent basis, Debye):
    X=              2.2962    Y=              0.1027    Z=              0.0647  Tot=              2.2994
 Quadrupole moment (field-independent basis, Debye-Ang):
   XX=            -29.8134   YY=            -36.5035   ZZ=            -35.2980
   XY=              0.4360   XZ=              0.0895   YZ=              0.1571
 Traceless Quadrupole moment (field-independent basis, Debye-Ang):
   XX=              4.0582   YY=             -2.6319   ZZ=             -1.4264
   XY=              0.4360   XZ=              0.0895   YZ=              0.1571
 Octapole moment (field-independent basis, Debye-Ang**2):
  XXX=             -0.6278  YYY=              1.9186  ZZZ=              0.1120  XYY=             13.3277
  XXY=             -1.6619  XXZ=             -0.0196  XZZ=             -1.2925  YZZ=             -0.0295
  YYZ=              0.7064  XYZ=             -0.0029
 Hexadecapole moment (field-independent basis, Debye-Ang**3):
 XXXX=           -222.7149 YYYY=           -248.0432 ZZZZ=            -33.9270 XXXY=              3.0825
 XXXZ=             -0.6088 YYYX=             -0.2004 YYYZ=              0.7910 ZZZX=              0.1361
 ZZZY=              0.0670 XXYY=            -88.8841 XXZZ=            -51.7225 YYZZ=            -48.9167
 XXYZ=              0.0682 YYXZ=              1.0336 ZZXY=              0.0201
 N-N= 2.086273940509D+02 E-N=-1.030781686767D+03  KE= 2.617624344599D+02
 1\1\GINC-NODE86\SP\RwB97X\6-31G(d)\C4H4N2\YANZ\22-Sep-2023\0\\# 6-31g(
 d) wb97x\\tmpdir/M3_frag_conf_2_2.gjf\\0,1\C,0,2.84622284,-0.83837512,
 15.11187642\N,0,3.14068506,0.09388914,14.19973888\N,0,3.6883541,-1.299
 08898,16.04906375\C,0,4.93028888,-0.80439494,16.04573143\H,0,5.5703609
 6,-1.15303821,16.84732064\C,0,5.36016203,0.14244585,15.13190442\H,0,6.
 37723774,0.51045372,15.13854177\C,0,4.38478334,0.60588123,14.23921734\
 H,0,1.84839797,-1.2574306,15.16373226\H,0,4.57576788,1.42654231,13.580
 60914\\Version=ES64L-G16RevA.03\State=1-A\HF=-264.2479287\RMSD=7.779e-
 09\Dipole=0.832926,0.3522229,0.0246371\Quadrupole=2.3625482,-0.6465727
 ,-1.7159755,1.5795637,-0.147111,0.403382\PG=C01 [X(C4H4N2)]\\@


 One man practicing sportsmanship is far better than 50 preaching it.
 -- Knute K. Rockne
 Job cpu time:       0 days  0 hours  0 minutes 35.7 seconds.
 Elapsed time:       0 days  0 hours  0 minutes  9.3 seconds.
 File lengths (MBytes):  RWF=     10 Int=      0 D2E=      0 Chk=      2 Scr=      1
 Normal termination of Gaussian 16 at Fri Sep 22 11:15:56 2023.
