 Entering Gaussian System, Link 0=g16
 Initial command:
 /share/apps/gaussian/g16/l1.exe "/tmp/55478.mgr/Gau-309547.inp" -scrdir="/tmp/55478.mgr/"
 Entering Link 1 = /share/apps/gaussian/g16/l1.exe PID=    309551.
  
 Copyright (c) 1988,1990,1992,1993,1995,1998,2003,2009,2016,
            Gaussian, Inc.  All Rights Reserved.
  
 This is part of the Gaussian(R) 16 program.  It is based on
 the Gaussian(R) 09 system (copyright 2009, Gaussian, Inc.),
 the Gaussian(R) 03 system (copyright 2003, Gaussian, Inc.),
 the Gaussian(R) 98 system (copyright 1998, Gaussian, Inc.),
 the Gaussian(R) 94 system (copyright 1995, Gaussian, Inc.),
 the Gaussian 92(TM) system (copyright 1992, Gaussian, Inc.),
 the Gaussian 90(TM) system (copyright 1990, Gaussian, Inc.),
 the Gaussian 88(TM) system (copyright 1988, Gaussian, Inc.),
 the Gaussian 86(TM) system (copyright 1986, Carnegie Mellon
 University), and the Gaussian 82(TM) system (copyright 1983,
 Carnegie Mellon University). Gaussian is a federally registered
 trademark of Gaussian, Inc.
  
 This software contains proprietary and confidential information,
 including trade secrets, belonging to Gaussian, Inc.
  
 This software is provided under written license and may be
 used, copied, transmitted, or stored only in accord with that
 written license.
  
 The following legend is applicable only to US Government
 contracts under FAR:
  
                    RESTRICTED RIGHTS LEGEND
  
 Use, reproduction and disclosure by the US Government is
 subject to restrictions as set forth in subparagraphs (a)
 and (c) of the Commercial Computer Software - Restricted
 Rights clause in FAR 52.227-19.
  
 Gaussian, Inc.
 340 Quinnipiac St., Bldg. 40, Wallingford CT 06492
  
  
 ---------------------------------------------------------------
 Warning -- This program may not be used in any manner that
 competes with the business of Gaussian, Inc. or will provide
 assistance to any competitor of Gaussian, Inc.  The licensee
 of this program is prohibited from giving any competitor of
 Gaussian, Inc. access to this program.  By using this program,
 the user acknowledges that Gaussian, Inc. is engaged in the
 business of creating and licensing software in the field of
 computational chemistry and represents and warrants to the
 licensee that it is not a competitor of Gaussian, Inc. and that
 it will not use this program in any manner prohibited above.
 ---------------------------------------------------------------
  

 Cite this work as:
 Gaussian 16, Revision A.03,
 M. J. Frisch, G. W. Trucks, H. B. Schlegel, G. E. Scuseria, 
 M. A. Robb, J. R. Cheeseman, G. Scalmani, V. Barone, 
 G. A. Petersson, H. Nakatsuji, X. Li, M. Caricato, A. V. Marenich, 
 J. Bloino, B. G. Janesko, R. Gomperts, B. Mennucci, H. P. Hratchian, 
 J. V. Ortiz, A. F. Izmaylov, J. L. Sonnenberg, D. Williams-Young, 
 F. Ding, F. Lipparini, F. Egidi, J. Goings, B. Peng, A. Petrone, 
 T. Henderson, D. Ranasinghe, V. G. Zakrzewski, J. Gao, N. Rega, 
 G. Zheng, W. Liang, M. Hada, M. Ehara, K. Toyota, R. Fukuda, 
 J. Hasegawa, M. Ishida, T. Nakajima, Y. Honda, O. Kitao, H. Nakai, 
 T. Vreven, K. Throssell, J. A. Montgomery, Jr., J. E. Peralta, 
 F. Ogliaro, M. J. Bearpark, J. J. Heyd, E. N. Brothers, K. N. Kudin, 
 V. N. Staroverov, T. A. Keith, R. Kobayashi, J. Normand, 
 K. Raghavachari, A. P. Rendell, J. C. Burant, S. S. Iyengar, 
 J. Tomasi, M. Cossi, J. M. Millam, M. Klene, C. Adamo, R. Cammi, 
 J. W. Ochterski, R. L. Martin, K. Morokuma, O. Farkas, 
 J. B. Foresman, and D. J. Fox, Gaussian, Inc., Wallingford CT, 2016.
 
 ******************************************
 Gaussian 16:  ES64L-G16RevA.03 25-Dec-2016
                22-Sep-2023 
 ******************************************
 %nprocshared=4
 Will use up to    4 processors via shared memory.
 %mem=4GB
 ----------------
 # 6-31g(d) wb97x
 ----------------
 1/38=1,172=1/1;
 2/12=2,17=6,18=5,40=1/2;
 3/5=1,6=6,7=1,11=2,25=1,30=1,74=-57/1,2,3;
 4//1;
 5/5=2,38=5/2;
 6/7=2,8=2,9=2,10=2,28=1/1;
 99/5=1,9=1/99;
 ---------------------------
 tmpdir/M3_frag_conf_1_2.gjf
 ---------------------------
 Symbolic Z-matrix:
 Charge =  0 Multiplicity = 1
 C                     2.8654   -0.8333    15.11479 
 N                     3.15038   0.10168   14.20326 
 N                     3.7137   -1.30253   16.04969 
 C                     4.96058  -0.81518   16.01895 
 H                     5.66549  -1.2158    16.73972 
 C                     5.37169   0.14968   15.1174 
 H                     6.39159   0.50354   15.10459 
 C                     4.38889   0.62538   14.23966 
 H                     1.87519  -1.26244   15.16425 
 H                     4.58608   1.45132   13.58693 
 
                          Input orientation:                          
 ---------------------------------------------------------------------
 Center     Atomic      Atomic             Coordinates (Angstroms)
 Number     Number       Type             X           Y           Z
 ---------------------------------------------------------------------
      1          6           0        2.865397   -0.833302   15.114790
      2          7           0        3.150375    0.101678   14.203265
      3          7           0        3.713700   -1.302534   16.049688
      4          6           0        4.960579   -0.815182   16.018954
      5          1           0        5.665494   -1.215799   16.739718
      6          6           0        5.371692    0.149678   15.117399
      7          1           0        6.391587    0.503535   15.104587
      8          6           0        4.388885    0.625382   14.239658
      9          1           0        1.875193   -1.262436   15.164249
     10          1           0        4.586080    1.451315   13.586929
 ---------------------------------------------------------------------
                    Distance matrix (angstroms):
                    1          2          3          4          5
     1  C    0.000000
     2  N    1.336517   0.000000
     3  N    1.346786   2.387138   0.000000
     4  C    2.282023   2.722902   1.339090   0.000000
     5  H    3.259944   3.807251   2.071994   1.084850   0.000000
     6  C    2.692168   2.402538   2.393119   1.383029   2.140739
     7  H    3.771108   3.388114   3.365438   2.150085   2.481325
     8  C    2.283557   1.345175   2.729275   2.359651   3.357078
     9  H    1.080327   2.100093   2.041009   3.232671   4.104955
    10  H    3.242620   2.064615   3.796039   3.345445   4.268338
                    6          7          8          9         10
     6  C    0.000000
     7  H    1.079613   0.000000
     8  C    1.400940   2.184894   0.000000
     9  H    3.771175   4.849745   3.276793   0.000000
    10  H    2.157263   2.541934   1.071031   4.147444   0.000000
 Stoichiometry    C4H4N2
 Framework group  C1[X(C4H4N2)]
 Deg. of freedom    24
 Full point group                 C1      NOp   1
 Largest Abelian subgroup         C1      NOp   1
 Largest concise Abelian subgroup C1      NOp   1
                         Standard orientation:                         
 ---------------------------------------------------------------------
 Center     Atomic      Atomic             Coordinates (Angstroms)
 Number     Number       Type             X           Y           Z
 ---------------------------------------------------------------------
      1          6           0       -1.327679   -0.027496   -0.012302
      2          7           0       -0.746835    1.176139   -0.025023
      3          7           0       -0.683514   -1.209598    0.026683
      4          6           0        0.654354   -1.158422    0.001159
      5          1           0        1.184808   -2.104669   -0.010493
      6          6           0        1.363897    0.028548   -0.019347
      7          1           0        2.442582    0.033586   -0.063817
      8          6           0        0.597328    1.200455    0.021122
      9          1           0       -2.404596   -0.112984   -0.005463
     10          1           0        1.062246    2.159777    0.124356
 ---------------------------------------------------------------------
 Rotational constants (GHZ):           6.1934609           6.1236212           3.0810193
 Standard basis: 6-31G(d) (6D, 7F)
 There are    98 symmetry adapted cartesian basis functions of A   symmetry.
 There are    98 symmetry adapted basis functions of A   symmetry.
    98 basis functions,   184 primitive gaussians,    98 cartesian basis functions
    21 alpha electrons       21 beta electrons
       nuclear repulsion energy       208.5239327243 Hartrees.
 NAtoms=   10 NActive=   10 NUniq=   10 SFac= 1.00D+00 NAtFMM=   60 NAOKFM=F Big=F
 Integral buffers will be    131072 words long.
 Raffenetti 2 integral format.
 Two-electron integral symmetry is turned on.
 One-electron integrals computed using PRISM.
 NBasis=    98 RedAO= T EigKep=  1.50D-03  NBF=    98
 NBsUse=    98 1.00D-06 EigRej= -1.00D+00 NBFU=    98
 ExpMin= 1.61D-01 ExpMax= 4.17D+03 ExpMxC= 6.27D+02 IAcc=3 IRadAn=         5 AccDes= 0.00D+00
 Harris functional with IExCor= 4538 and IRadAn=       5 diagonalized for initial guess.
 HarFok:  IExCor= 4538 AccDes= 0.00D+00 IRadAn=         5 IDoV= 1 UseB2=F ITyADJ=14
 ICtDFT=  3500011 ScaDFX=  1.000000  1.000000  1.000000  1.000000
 FoFCou: FMM=F IPFlag=           0 FMFlag=      100000 FMFlg1=           0
         NFxFlg=           0 DoJE=T BraDBF=F KetDBF=T FulRan=T
         wScrn=  0.000000 ICntrl=       500 IOpCl=  0 I1Cent=   200000004 NGrid=           0
         NMat0=    1 NMatS0=      1 NMatT0=    0 NMatD0=    1 NMtDS0=    0 NMtDT0=    0
 Petite list used in FoFCou.
 Keep R1 ints in memory in canonical form, NReq=27222676.
 Requested convergence on RMS density matrix=1.00D-08 within 128 cycles.
 Requested convergence on MAX density matrix=1.00D-06.
 Requested convergence on             energy=1.00D-06.
 No special actions if energy rises.
 Integral accuracy reduced to 1.0D-05 until final iterations.
 Initial convergence to 1.0D-05 achieved.  Increase integral accuracy.
 SCF Done:  E(RwB97X) =  -264.248112269     A.U. after   14 cycles
            NFock= 14  Conv=0.72D-08     -V/T= 2.0095

 **********************************************************************

            Population analysis using the SCF density.

 **********************************************************************

 Orbital symmetries:
       Occupied  (A) (A) (A) (A) (A) (A) (A) (A) (A) (A) (A) (A)
                 (A) (A) (A) (A) (A) (A) (A) (A) (A)
       Virtual   (A) (A) (A) (A) (A) (A) (A) (A) (A) (A) (A) (A)
                 (A) (A) (A) (A) (A) (A) (A) (A) (A) (A) (A) (A)
                 (A) (A) (A) (A) (A) (A) (A) (A) (A) (A) (A) (A)
                 (A) (A) (A) (A) (A) (A) (A) (A) (A) (A) (A) (A)
                 (A) (A) (A) (A) (A) (A) (A) (A) (A) (A) (A) (A)
                 (A) (A) (A) (A) (A) (A) (A) (A) (A) (A) (A) (A)
                 (A) (A) (A) (A) (A)
 The electronic state is 1-A.
 Alpha  occ. eigenvalues --  -14.42276 -14.41996 -10.34426 -10.33277 -10.32888
 Alpha  occ. eigenvalues --  -10.29605  -1.11795  -1.01652  -0.92838  -0.78319
 Alpha  occ. eigenvalues --   -0.77950  -0.66006  -0.62421  -0.58720  -0.54324
 Alpha  occ. eigenvalues --   -0.52819  -0.52282  -0.41403  -0.40728  -0.38195
 Alpha  occ. eigenvalues --   -0.35289
 Alpha virt. eigenvalues --    0.04322   0.05646   0.19864   0.23478   0.24731
 Alpha virt. eigenvalues --    0.25211   0.27022   0.32798   0.33807   0.42112
 Alpha virt. eigenvalues --    0.43305   0.47959   0.51243   0.60668   0.65078
 Alpha virt. eigenvalues --    0.68128   0.68457   0.69083   0.69669   0.72058
 Alpha virt. eigenvalues --    0.72892   0.76301   0.78327   0.78713   0.90501
 Alpha virt. eigenvalues --    0.93250   0.93911   0.96141   0.96770   0.97030
 Alpha virt. eigenvalues --    0.99317   1.03463   1.05613   1.06452   1.17726
 Alpha virt. eigenvalues --    1.20329   1.27668   1.29768   1.34621   1.46623
 Alpha virt. eigenvalues --    1.49862   1.54315   1.57425   1.59500   1.61639
 Alpha virt. eigenvalues --    1.62887   1.71029   1.83141   1.91429   1.93818
 Alpha virt. eigenvalues --    1.97997   2.04340   2.21024   2.23876   2.25584
 Alpha virt. eigenvalues --    2.26547   2.28166   2.31260   2.42521   2.44220
 Alpha virt. eigenvalues --    2.49492   2.60810   2.62805   2.71251   2.75261
 Alpha virt. eigenvalues --    2.80800   2.82631   2.89604   2.93217   3.15379
 Alpha virt. eigenvalues --    3.44750   4.00147   4.14842   4.27900   4.32084
 Alpha virt. eigenvalues --    4.35876   4.61219
          Condensed to atoms (all electrons):
               1          2          3          4          5          6
     1  C    4.689933   0.451990   0.456160  -0.066417   0.004652  -0.033250
     2  N    0.451990   6.686249  -0.060501  -0.030219  -0.000392  -0.039422
     3  N    0.456160  -0.060501   6.690289   0.476309  -0.045607  -0.039930
     4  C   -0.066417  -0.030219   0.476309   4.746770   0.395493   0.498407
     5  H    0.004652  -0.000392  -0.045607   0.395493   0.522898  -0.061277
     6  C   -0.033250  -0.039422  -0.039930   0.498407  -0.061277   5.067360
     7  H    0.000222   0.003130   0.003371  -0.029225  -0.001563   0.362519
     8  C   -0.066013   0.475228  -0.031649  -0.032676   0.003512   0.495398
     9  H    0.406546  -0.055466  -0.062592   0.005337  -0.000109  -0.000513
    10  H    0.004497  -0.045873  -0.000355   0.003385  -0.000126  -0.058210
               7          8          9         10
     1  C    0.000222  -0.066013   0.406546   0.004497
     2  N    0.003130   0.475228  -0.055466  -0.045873
     3  N    0.003371  -0.031649  -0.062592  -0.000355
     4  C   -0.029225  -0.032676   0.005337   0.003385
     5  H   -0.001563   0.003512  -0.000109  -0.000126
     6  C    0.362519   0.495398  -0.000513  -0.058210
     7  H    0.505386  -0.028007   0.000021  -0.001179
     8  C   -0.028007   4.751570   0.004495   0.395526
     9  H    0.000021   0.004495   0.513102  -0.000080
    10  H   -0.001179   0.395526  -0.000080   0.515348
 Mulliken charges:
               1
     1  C    0.151679
     2  N   -0.384724
     3  N   -0.385494
     4  C    0.032835
     5  H    0.182518
     6  C   -0.191082
     7  H    0.185325
     8  C    0.032616
     9  H    0.189258
    10  H    0.187068
 Sum of Mulliken charges =  -0.00000
 Mulliken charges with hydrogens summed into heavy atoms:
               1
     1  C    0.340937
     2  N   -0.384724
     3  N   -0.385494
     4  C    0.215353
     6  C   -0.005757
     8  C    0.219684
 Electronic spatial extent (au):  <R**2>=            410.1179
 Charge=             -0.0000 electrons
 Dipole moment (field-independent basis, Debye):
    X=              2.3146    Y=              0.0851    Z=              0.0101  Tot=              2.3162
 Quadrupole moment (field-independent basis, Debye-Ang):
   XX=            -29.7732   YY=            -36.5802   ZZ=            -35.3129
   XY=              0.2609   XZ=              0.0060   YZ=              0.3594
 Traceless Quadrupole moment (field-independent basis, Debye-Ang):
   XX=              4.1156   YY=             -2.6915   ZZ=             -1.4241
   XY=              0.2609   XZ=              0.0060   YZ=              0.3594
 Octapole moment (field-independent basis, Debye-Ang**2):
  XXX=             -0.6380  YYY=              1.3695  ZZZ=              0.0426  XYY=             13.5708
  XXY=             -1.1186  XXZ=             -0.2544  XZZ=             -1.2870  YZZ=              0.0281
  YYZ=              0.3826  XYZ=              0.1015
 Hexadecapole moment (field-independent basis, Debye-Ang**3):
 XXXX=           -222.4006 YYYY=           -249.5742 ZZZZ=            -33.9417 XXXY=              1.7831
 XXXZ=             -0.7474 YYYX=              0.0270 YYYZ=              1.7473 ZZZX=              0.0369
 ZZZY=              0.1489 XXYY=            -88.6911 XXZZ=            -51.6582 YYZZ=            -49.0880
 XXYZ=              0.4519 YYXZ=              0.5572 ZZXY=              0.0454
 N-N= 2.085239327243D+02 E-N=-1.030561925735D+03  KE= 2.617528878370D+02
 1\1\GINC-NODE86\SP\RwB97X\6-31G(d)\C4H4N2\YANZ\22-Sep-2023\0\\# 6-31g(
 d) wb97x\\tmpdir/M3_frag_conf_1_2.gjf\\0,1\C,0,2.86539657,-0.8333016,1
 5.11478973\N,0,3.15037548,0.10167837,14.20326474\N,0,3.71370038,-1.302
 53392,16.0496881\C,0,4.96057889,-0.81518188,16.01895377\H,0,5.66549351
 ,-1.21579907,16.73971755\C,0,5.37169161,0.14967785,15.11739907\H,0,6.3
 9158655,0.5035351,15.10458679\C,0,4.38888514,0.62538199,14.23965826\H,
 0,1.87519313,-1.26243635,15.16424945\H,0,4.58607961,1.45131506,13.5869
 2905\\Version=ES64L-G16RevA.03\State=1-A\HF=-264.2481123\RMSD=7.152e-0
 9\Dipole=0.8430296,0.3459627,-0.0060243\Quadrupole=2.4483304,-0.578380
 5,-1.8699499,1.5016959,-0.2010675,0.3802267\PG=C01 [X(C4H4N2)]\\@


      TO SUSPECT YOUR OWN MORTALITY IS TO KNOW THE BEGINNING OF TERROR.
      TO LEARN IRREFUTABLY THAT YOU ARE MORTAL IS TO KNOW THE END
      OF TERROR.

                                                  -- JESSICA
                                                     CHILDREN OF DUNE
                                                     BY FRANK HERBERT
 Job cpu time:       0 days  0 hours  0 minutes 35.5 seconds.
 Elapsed time:       0 days  0 hours  0 minutes  9.2 seconds.
 File lengths (MBytes):  RWF=     10 Int=      0 D2E=      0 Chk=      2 Scr=      1
 Normal termination of Gaussian 16 at Fri Sep 22 11:14:06 2023.
