 Entering Gaussian System, Link 0=g16
 Initial command:
 /share/apps/gaussian/g16/l1.exe "/tmp/55478.mgr/Gau-302860.inp" -scrdir="/tmp/55478.mgr/"
 Entering Link 1 = /share/apps/gaussian/g16/l1.exe PID=    302861.
  
 Copyright (c) 1988,1990,1992,1993,1995,1998,2003,2009,2016,
            Gaussian, Inc.  All Rights Reserved.
  
 This is part of the Gaussian(R) 16 program.  It is based on
 the Gaussian(R) 09 system (copyright 2009, Gaussian, Inc.),
 the Gaussian(R) 03 system (copyright 2003, Gaussian, Inc.),
 the Gaussian(R) 98 system (copyright 1998, Gaussian, Inc.),
 the Gaussian(R) 94 system (copyright 1995, Gaussian, Inc.),
 the Gaussian 92(TM) system (copyright 1992, Gaussian, Inc.),
 the Gaussian 90(TM) system (copyright 1990, Gaussian, Inc.),
 the Gaussian 88(TM) system (copyright 1988, Gaussian, Inc.),
 the Gaussian 86(TM) system (copyright 1986, Carnegie Mellon
 University), and the Gaussian 82(TM) system (copyright 1983,
 Carnegie Mellon University). Gaussian is a federally registered
 trademark of Gaussian, Inc.
  
 This software contains proprietary and confidential information,
 including trade secrets, belonging to Gaussian, Inc.
  
 This software is provided under written license and may be
 used, copied, transmitted, or stored only in accord with that
 written license.
  
 The following legend is applicable only to US Government
 contracts under FAR:
  
                    RESTRICTED RIGHTS LEGEND
  
 Use, reproduction and disclosure by the US Government is
 subject to restrictions as set forth in subparagraphs (a)
 and (c) of the Commercial Computer Software - Restricted
 Rights clause in FAR 52.227-19.
  
 Gaussian, Inc.
 340 Quinnipiac St., Bldg. 40, Wallingford CT 06492
  
  
 ---------------------------------------------------------------
 Warning -- This program may not be used in any manner that
 competes with the business of Gaussian, Inc. or will provide
 assistance to any competitor of Gaussian, Inc.  The licensee
 of this program is prohibited from giving any competitor of
 Gaussian, Inc. access to this program.  By using this program,
 the user acknowledges that Gaussian, Inc. is engaged in the
 business of creating and licensing software in the field of
 computational chemistry and represents and warrants to the
 licensee that it is not a competitor of Gaussian, Inc. and that
 it will not use this program in any manner prohibited above.
 ---------------------------------------------------------------
  

 Cite this work as:
 Gaussian 16, Revision A.03,
 M. J. Frisch, G. W. Trucks, H. B. Schlegel, G. E. Scuseria, 
 M. A. Robb, J. R. Cheeseman, G. Scalmani, V. Barone, 
 G. A. Petersson, H. Nakatsuji, X. Li, M. Caricato, A. V. Marenich, 
 J. Bloino, B. G. Janesko, R. Gomperts, B. Mennucci, H. P. Hratchian, 
 J. V. Ortiz, A. F. Izmaylov, J. L. Sonnenberg, D. Williams-Young, 
 F. Ding, F. Lipparini, F. Egidi, J. Goings, B. Peng, A. Petrone, 
 T. Henderson, D. Ranasinghe, V. G. Zakrzewski, J. Gao, N. Rega, 
 G. Zheng, W. Liang, M. Hada, M. Ehara, K. Toyota, R. Fukuda, 
 J. Hasegawa, M. Ishida, T. Nakajima, Y. Honda, O. Kitao, H. Nakai, 
 T. Vreven, K. Throssell, J. A. Montgomery, Jr., J. E. Peralta, 
 F. Ogliaro, M. J. Bearpark, J. J. Heyd, E. N. Brothers, K. N. Kudin, 
 V. N. Staroverov, T. A. Keith, R. Kobayashi, J. Normand, 
 K. Raghavachari, A. P. Rendell, J. C. Burant, S. S. Iyengar, 
 J. Tomasi, M. Cossi, J. M. Millam, M. Klene, C. Adamo, R. Cammi, 
 J. W. Ochterski, R. L. Martin, K. Morokuma, O. Farkas, 
 J. B. Foresman, and D. J. Fox, Gaussian, Inc., Wallingford CT, 2016.
 
 ******************************************
 Gaussian 16:  ES64L-G16RevA.03 25-Dec-2016
                22-Sep-2023 
 ******************************************
 %nprocshared=4
 Will use up to    4 processors via shared memory.
 %mem=4GB
 ----------------
 # 6-31g(d) wb97x
 ----------------
 1/38=1,172=1/1;
 2/12=2,17=6,18=5,40=1/2;
 3/5=1,6=6,7=1,11=2,25=1,30=1,74=-57/1,2,3;
 4//1;
 5/5=2,38=5/2;
 6/7=2,8=2,9=2,10=2,28=1/1;
 99/5=1,9=1/99;
 --------------------
 tmpdir/M3_ref_74.gjf
 --------------------
 Symbolic Z-matrix:
 Charge =  0 Multiplicity = 1
 H                    -2.11734   1.53477   12.22002 
 N                    -1.13954   1.31644   12.33993 
 C                    -0.88004   0.16142   13.11387 
 C                     0.3931   -0.13857   13.59764 
 C                    -1.96331  -0.65879   13.42037 
 H                     1.23073   0.50003   13.37037 
 C                     0.58085  -1.27787   14.38415 
 H                    -2.95636  -0.42654   13.04124 
 C                    -1.76035  -1.78362   14.20776 
 C                    -0.50593  -2.12139   14.70001 
 H                    -2.60631  -2.42489   14.44605 
 H                    -0.5293    1.80802   11.78697 
 H                     1.56227  -1.57112   14.79086 
 H                    -0.37455  -3.01452   15.31378 
 
                          Input orientation:                          
 ---------------------------------------------------------------------
 Center     Atomic      Atomic             Coordinates (Angstroms)
 Number     Number       Type             X           Y           Z
 ---------------------------------------------------------------------
      1          1           0       -2.117339    1.534774   12.220024
      2          7           0       -1.139544    1.316440   12.339927
      3          6           0       -0.880038    0.161420   13.113865
      4          6           0        0.393095   -0.138565   13.597645
      5          6           0       -1.963313   -0.658791   13.420370
      6          1           0        1.230734    0.500032   13.370366
      7          6           0        0.580851   -1.277869   14.384148
      8          1           0       -2.956356   -0.426544   13.041243
      9          6           0       -1.760345   -1.783623   14.207761
     10          6           0       -0.505932   -2.121388   14.700008
     11          1           0       -2.606307   -2.424887   14.446048
     12          1           0       -0.529299    1.808024   11.786971
     13          1           0        1.562266   -1.571121   14.790858
     14          1           0       -0.374547   -3.014520   15.313779
 ---------------------------------------------------------------------
                    Distance matrix (angstroms):
                    1          2          3          4          5
     1  H    0.000000
     2  N    1.009024   0.000000
     3  C    2.053282   1.414353   0.000000
     4  C    3.316652   2.459243   1.394597   0.000000
     5  C    2.505251   2.397392   1.392902   2.419653   0.000000
     6  H    3.688302   2.710451   2.153093   1.077544   3.398133
     7  C    4.458096   3.724116   2.412337   1.397087   2.790143
     8  H    2.285852   2.613550   2.159183   3.407541   1.088030
     9  C    3.884624   3.672137   2.398904   2.777726   1.387958
    10  C    4.702603   4.217832   2.804820   2.440295   2.429120
    11  H    4.568718   4.537033   3.382854   3.865678   2.141157
    12  H    1.668554   0.959069   2.143588   2.813994   3.287790
    13  H    5.458504   4.652403   3.432033   2.200667   3.891053
    14  H    5.771024   5.309070   3.896375   3.435914   3.414474
                    6          7          8          9         10
     6  H    0.000000
     7  C    2.147332   0.000000
     8  H    4.300998   3.878141   0.000000
     9  C    3.855239   2.401687   2.152410   0.000000
    10  C    3.414059   1.411520   3.410070   1.389224   0.000000
    11  H    4.943190   3.387840   2.467668   1.087958   2.137331
    12  H    2.704755   4.183359   3.529461   4.502846   4.891483
    13  H    2.533256   1.102082   4.978871   3.380074   2.142076
    14  H    4.325027   2.189282   4.304390   2.158430   1.091632
                   11         12         13         14
    11  H    0.000000
    12  H    5.413149   0.000000
    13  H    4.269053   4.981627   0.000000
    14  H    2.466045   5.976558   2.471455   0.000000
 Stoichiometry    C6H7N
 Framework group  C1[X(C6H7N)]
 Deg. of freedom    36
 Full point group                 C1      NOp   1
 Largest Abelian subgroup         C1      NOp   1
 Largest concise Abelian subgroup C1      NOp   1
                         Standard orientation:                         
 ---------------------------------------------------------------------
 Center     Atomic      Atomic             Coordinates (Angstroms)
 Number     Number       Type             X           Y           Z
 ---------------------------------------------------------------------
      1          1           0       -2.741888    0.869674   -0.209336
      2          7           0       -2.331752   -0.032794   -0.021001
      3          6           0       -0.917805   -0.047244    0.009636
      4          6           0       -0.186070   -1.234342   -0.006621
      5          6           0       -0.266316    1.183906    0.012210
      6          1           0       -0.687871   -2.187833   -0.018983
      7          6           0        1.210092   -1.183526   -0.007240
      8          1           0       -0.836667    2.110342    0.027296
      9          6           0        1.121244    1.216482    0.005683
     10          6           0        1.885092    0.056118   -0.000402
     11          1           0        1.630001    2.178151    0.008974
     12          1           0       -2.937366   -0.715050    0.274925
     13          1           0        1.843313   -2.085506   -0.014141
     14          1           0        2.975322    0.111419   -0.001323
 ---------------------------------------------------------------------
 Rotational constants (GHZ):           5.6375425           2.5861362           1.7744985
 Standard basis: 6-31G(d) (6D, 7F)
 There are   119 symmetry adapted cartesian basis functions of A   symmetry.
 There are   119 symmetry adapted basis functions of A   symmetry.
   119 basis functions,   224 primitive gaussians,   119 cartesian basis functions
    25 alpha electrons       25 beta electrons
       nuclear repulsion energy       271.1768016756 Hartrees.
 NAtoms=   14 NActive=   14 NUniq=   14 SFac= 1.00D+00 NAtFMM=   60 NAOKFM=F Big=F
 Integral buffers will be    131072 words long.
 Raffenetti 2 integral format.
 Two-electron integral symmetry is turned on.
 One-electron integrals computed using PRISM.
 NBasis=   119 RedAO= T EigKep=  4.72D-04  NBF=   119
 NBsUse=   119 1.00D-06 EigRej= -1.00D+00 NBFU=   119
 ExpMin= 1.61D-01 ExpMax= 4.17D+03 ExpMxC= 6.27D+02 IAcc=3 IRadAn=         5 AccDes= 0.00D+00
 Harris functional with IExCor= 4538 and IRadAn=       5 diagonalized for initial guess.
 HarFok:  IExCor= 4538 AccDes= 0.00D+00 IRadAn=         5 IDoV= 1 UseB2=F ITyADJ=14
 ICtDFT=  3500011 ScaDFX=  1.000000  1.000000  1.000000  1.000000
 FoFCou: FMM=F IPFlag=           0 FMFlag=      100000 FMFlg1=           0
         NFxFlg=           0 DoJE=T BraDBF=F KetDBF=T FulRan=T
         wScrn=  0.000000 ICntrl=       500 IOpCl=  0 I1Cent=   200000004 NGrid=           0
         NMat0=    1 NMatS0=      1 NMatT0=    0 NMatD0=    1 NMtDS0=    0 NMtDT0=    0
 Petite list used in FoFCou.
 Keep R1 ints in memory in canonical form, NReq=54756213.
 Requested convergence on RMS density matrix=1.00D-08 within 128 cycles.
 Requested convergence on MAX density matrix=1.00D-06.
 Requested convergence on             energy=1.00D-06.
 No special actions if energy rises.
 Integral accuracy reduced to 1.0D-05 until final iterations.
 Initial convergence to 1.0D-05 achieved.  Increase integral accuracy.
 SCF Done:  E(RwB97X) =  -287.511368843     A.U. after   14 cycles
            NFock= 14  Conv=0.75D-08     -V/T= 2.0098

 **********************************************************************

            Population analysis using the SCF density.

 **********************************************************************

 Orbital symmetries:
       Occupied  (A) (A) (A) (A) (A) (A) (A) (A) (A) (A) (A) (A)
                 (A) (A) (A) (A) (A) (A) (A) (A) (A) (A) (A) (A)
                 (A)
       Virtual   (A) (A) (A) (A) (A) (A) (A) (A) (A) (A) (A) (A)
                 (A) (A) (A) (A) (A) (A) (A) (A) (A) (A) (A) (A)
                 (A) (A) (A) (A) (A) (A) (A) (A) (A) (A) (A) (A)
                 (A) (A) (A) (A) (A) (A) (A) (A) (A) (A) (A) (A)
                 (A) (A) (A) (A) (A) (A) (A) (A) (A) (A) (A) (A)
                 (A) (A) (A) (A) (A) (A) (A) (A) (A) (A) (A) (A)
                 (A) (A) (A) (A) (A) (A) (A) (A) (A) (A) (A) (A)
                 (A) (A) (A) (A) (A) (A) (A) (A) (A) (A)
 The electronic state is 1-A.
 Alpha  occ. eigenvalues --  -14.40233 -10.31037 -10.27047 -10.26469 -10.25979
 Alpha  occ. eigenvalues --  -10.25846 -10.25586  -1.03512  -0.95824  -0.86423
 Alpha  occ. eigenvalues --   -0.84660  -0.72432  -0.71047  -0.63630  -0.61588
 Alpha  occ. eigenvalues --   -0.58040  -0.53095  -0.52927  -0.51718  -0.48422
 Alpha  occ. eigenvalues --   -0.45087  -0.43116  -0.39822  -0.33328  -0.28201
 Alpha virt. eigenvalues --    0.09302   0.10992   0.18798   0.19971   0.23142
 Alpha virt. eigenvalues --    0.26127   0.27164   0.28415   0.29539   0.30631
 Alpha virt. eigenvalues --    0.36276   0.40692   0.42522   0.45509   0.45908
 Alpha virt. eigenvalues --    0.57340   0.63909   0.64224   0.66248   0.68696
 Alpha virt. eigenvalues --    0.71335   0.71345   0.71783   0.71921   0.73378
 Alpha virt. eigenvalues --    0.73737   0.74994   0.77880   0.79401   0.81586
 Alpha virt. eigenvalues --    0.87625   0.88788   0.95913   0.96419   0.97427
 Alpha virt. eigenvalues --    0.98591   1.02221   1.03948   1.04994   1.06992
 Alpha virt. eigenvalues --    1.09514   1.12050   1.14833   1.20620   1.22555
 Alpha virt. eigenvalues --    1.28721   1.30214   1.35780   1.38550   1.44518
 Alpha virt. eigenvalues --    1.54038   1.55854   1.57778   1.60151   1.61012
 Alpha virt. eigenvalues --    1.62866   1.67293   1.82949   1.89496   1.90934
 Alpha virt. eigenvalues --    1.94682   2.00066   2.06211   2.06864   2.09682
 Alpha virt. eigenvalues --    2.15845   2.18580   2.23299   2.26081   2.27851
 Alpha virt. eigenvalues --    2.33844   2.35742   2.42474   2.44450   2.49199
 Alpha virt. eigenvalues --    2.57644   2.62352   2.69557   2.71106   2.77928
 Alpha virt. eigenvalues --    2.82498   2.84684   2.86185   2.98265   3.00199
 Alpha virt. eigenvalues --    3.23539   3.53444   3.95526   4.22502   4.25467
 Alpha virt. eigenvalues --    4.26852   4.46577   4.49997   4.82742
          Condensed to atoms (all electrons):
               1          2          3          4          5          6
     1  H    0.379107   0.330221  -0.025226   0.003956  -0.003831  -0.000056
     2  N    0.330221   7.018565   0.293111  -0.064634  -0.063933  -0.005122
     3  C   -0.025226   0.293111   4.426965   0.567951   0.560282  -0.038342
     4  C    0.003956  -0.064634   0.567951   4.951245  -0.055485   0.368801
     5  C   -0.003831  -0.063933   0.560282  -0.055485   4.973115   0.004662
     6  H   -0.000056  -0.005122  -0.038342   0.368801   0.004662   0.552662
     7  C   -0.000109   0.004104  -0.017375   0.546016  -0.039188  -0.035534
     8  H    0.006212  -0.006413  -0.041154   0.004489   0.364574  -0.000128
     9  C    0.000155   0.004756  -0.021825  -0.037834   0.553386   0.000097
    10  C   -0.000001   0.000495  -0.031390  -0.050515  -0.050602   0.003768
    11  H   -0.000009  -0.000109   0.003226   0.000612  -0.035195   0.000012
    12  H   -0.026580   0.339146  -0.015147  -0.004083   0.004169   0.002381
    13  H    0.000002  -0.000080   0.002374  -0.031333   0.000663  -0.003696
    14  H   -0.000000   0.000002   0.000412   0.003518   0.003796  -0.000119
               7          8          9         10         11         12
     1  H   -0.000109   0.006212   0.000155  -0.000001  -0.000009  -0.026580
     2  N    0.004104  -0.006413   0.004756   0.000495  -0.000109   0.339146
     3  C   -0.017375  -0.041154  -0.021825  -0.031390   0.003226  -0.015147
     4  C    0.546016   0.004489  -0.037834  -0.050515   0.000612  -0.004083
     5  C   -0.039188   0.364574   0.553386  -0.050602  -0.035195   0.004169
     6  H   -0.035534  -0.000128   0.000097   0.003768   0.000012   0.002381
     7  C    4.854599   0.000116  -0.033285   0.552992   0.004216  -0.000044
     8  H    0.000116   0.558955  -0.031904   0.003847  -0.004559   0.000004
     9  C   -0.033285  -0.031904   4.823260   0.566306   0.368361  -0.000121
    10  C    0.552992   0.003847   0.566306   4.881527  -0.038127   0.000006
    11  H    0.004216  -0.004559   0.368361  -0.038127   0.554234   0.000002
    12  H   -0.000044   0.000004  -0.000121   0.000006   0.000002   0.359484
    13  H    0.366940   0.000011   0.003927  -0.037431  -0.000164  -0.000002
    14  H   -0.035464  -0.000127  -0.036200   0.372614  -0.004154  -0.000000
              13         14
     1  H    0.000002  -0.000000
     2  N   -0.000080   0.000002
     3  C    0.002374   0.000412
     4  C   -0.031333   0.003518
     5  C    0.000663   0.003796
     6  H   -0.003696  -0.000119
     7  C    0.366940  -0.035464
     8  H    0.000011  -0.000127
     9  C    0.003927  -0.036200
    10  C   -0.037431   0.372614
    11  H   -0.000164  -0.004154
    12  H   -0.000002  -0.000000
    13  H    0.546594  -0.003557
    14  H   -0.003557   0.546682
 Mulliken charges:
               1
     1  H    0.336160
     2  N   -0.850110
     3  C    0.336137
     4  C   -0.202705
     5  C   -0.216414
     6  H    0.150615
     7  C   -0.167984
     8  H    0.146076
     9  C   -0.159079
    10  C   -0.173488
    11  H    0.151655
    12  H    0.340786
    13  H    0.155752
    14  H    0.152599
 Sum of Mulliken charges =  -0.00000
 Mulliken charges with hydrogens summed into heavy atoms:
               1
     2  N   -0.173164
     3  C    0.336137
     4  C   -0.052090
     5  C   -0.070337
     7  C   -0.012232
     9  C   -0.007424
    10  C   -0.020889
 Electronic spatial extent (au):  <R**2>=            685.6149
 Charge=             -0.0000 electrons
 Dipole moment (field-independent basis, Debye):
    X=             -1.4516    Y=              0.1484    Z=              0.2635  Tot=              1.4828
 Quadrupole moment (field-independent basis, Debye-Ang):
   XX=            -32.4030   YY=            -36.0497   ZZ=            -45.6388
   XY=             -0.3848   XZ=             -0.8712   YZ=             -0.8124
 Traceless Quadrupole moment (field-independent basis, Debye-Ang):
   XX=              5.6275   YY=              1.9808   ZZ=             -7.6083
   XY=             -0.3848   XZ=             -0.8712   YZ=             -0.8124
 Octapole moment (field-independent basis, Debye-Ang**2):
  XXX=            -22.9544  YYY=              0.4574  ZZZ=              0.2569  XYY=             -5.3800
  XXY=              0.0951  XXZ=              2.6472  XZZ=             -2.7207  YZZ=              0.0354
  YYZ=              0.0310  XYZ=              2.4404
 Hexadecapole moment (field-independent basis, Debye-Ang**3):
 XXXX=           -456.0994 YYYY=           -276.7210 ZZZZ=            -47.1728 XXXY=              0.4964
 XXXZ=             -8.5332 YYYX=             -0.8986 YYYZ=             -0.5415 ZZZX=             -0.8665
 ZZZY=             -0.7029 XXYY=           -119.8370 XXZZ=           -112.5460 YYZZ=            -63.4575
 XXYZ=             -6.7774 YYXZ=             -0.3060 ZZXY=              0.1702
 N-N= 2.711768016756D+02 E-N=-1.208916364306D+03  KE= 2.847249033435D+02
 1\1\GINC-NODE86\SP\RwB97X\6-31G(d)\C6H7N1\YANZ\22-Sep-2023\0\\# 6-31g(
 d) wb97x\\tmpdir/M3_ref_74.gjf\\0,1\H,0,-2.117339,1.534774,12.220024\N
 ,0,-1.139544,1.31644,12.339927\C,0,-0.880038,0.16142,13.113865\C,0,0.3
 93095,-0.138565,13.597645\C,0,-1.963313,-0.658791,13.42037\H,0,1.23073
 4,0.500032,13.370366\C,0,0.580851,-1.277869,14.384148\H,0,-2.956356,-0
 .426544,13.041243\C,0,-1.760345,-1.783623,14.207761\C,0,-0.505932,-2.1
 21388,14.700008\H,0,-2.606307,-2.424887,14.446048\H,0,-0.52929918,1.80
 802379,11.78697094\H,0,1.56226591,-1.57112106,14.79085839\H,0,-0.37454
 669,-3.01451999,15.31377863\\Version=ES64L-G16RevA.03\State=1-A\HF=-28
 7.5113688\RMSD=7.508e-09\Dipole=-0.1357202,0.3913942,-0.4107446\Quadru
 pole=1.5963097,0.335151,-1.9314607,-0.0598515,0.9856815,-4.746676\PG=C
 01 [X(C6H7N1)]\\@


 BOOKS ARE LIGHTHOUSES ERECTED IN THE GREAT SEA OF TIME.
     -- E.P.WHIPPLE
 Job cpu time:       0 days  0 hours  1 minutes  1.0 seconds.
 Elapsed time:       0 days  0 hours  0 minutes 15.9 seconds.
 File lengths (MBytes):  RWF=     10 Int=      0 D2E=      0 Chk=      2 Scr=      1
 Normal termination of Gaussian 16 at Fri Sep 22 11:09:53 2023.
