 Entering Gaussian System, Link 0=g16
 Initial command:
 /share/apps/gaussian/g16/l1.exe "/tmp/55478.mgr/Gau-301211.inp" -scrdir="/tmp/55478.mgr/"
 Entering Link 1 = /share/apps/gaussian/g16/l1.exe PID=    301213.
  
 Copyright (c) 1988,1990,1992,1993,1995,1998,2003,2009,2016,
            Gaussian, Inc.  All Rights Reserved.
  
 This is part of the Gaussian(R) 16 program.  It is based on
 the Gaussian(R) 09 system (copyright 2009, Gaussian, Inc.),
 the Gaussian(R) 03 system (copyright 2003, Gaussian, Inc.),
 the Gaussian(R) 98 system (copyright 1998, Gaussian, Inc.),
 the Gaussian(R) 94 system (copyright 1995, Gaussian, Inc.),
 the Gaussian 92(TM) system (copyright 1992, Gaussian, Inc.),
 the Gaussian 90(TM) system (copyright 1990, Gaussian, Inc.),
 the Gaussian 88(TM) system (copyright 1988, Gaussian, Inc.),
 the Gaussian 86(TM) system (copyright 1986, Carnegie Mellon
 University), and the Gaussian 82(TM) system (copyright 1983,
 Carnegie Mellon University). Gaussian is a federally registered
 trademark of Gaussian, Inc.
  
 This software contains proprietary and confidential information,
 including trade secrets, belonging to Gaussian, Inc.
  
 This software is provided under written license and may be
 used, copied, transmitted, or stored only in accord with that
 written license.
  
 The following legend is applicable only to US Government
 contracts under FAR:
  
                    RESTRICTED RIGHTS LEGEND
  
 Use, reproduction and disclosure by the US Government is
 subject to restrictions as set forth in subparagraphs (a)
 and (c) of the Commercial Computer Software - Restricted
 Rights clause in FAR 52.227-19.
  
 Gaussian, Inc.
 340 Quinnipiac St., Bldg. 40, Wallingford CT 06492
  
  
 ---------------------------------------------------------------
 Warning -- This program may not be used in any manner that
 competes with the business of Gaussian, Inc. or will provide
 assistance to any competitor of Gaussian, Inc.  The licensee
 of this program is prohibited from giving any competitor of
 Gaussian, Inc. access to this program.  By using this program,
 the user acknowledges that Gaussian, Inc. is engaged in the
 business of creating and licensing software in the field of
 computational chemistry and represents and warrants to the
 licensee that it is not a competitor of Gaussian, Inc. and that
 it will not use this program in any manner prohibited above.
 ---------------------------------------------------------------
  

 Cite this work as:
 Gaussian 16, Revision A.03,
 M. J. Frisch, G. W. Trucks, H. B. Schlegel, G. E. Scuseria, 
 M. A. Robb, J. R. Cheeseman, G. Scalmani, V. Barone, 
 G. A. Petersson, H. Nakatsuji, X. Li, M. Caricato, A. V. Marenich, 
 J. Bloino, B. G. Janesko, R. Gomperts, B. Mennucci, H. P. Hratchian, 
 J. V. Ortiz, A. F. Izmaylov, J. L. Sonnenberg, D. Williams-Young, 
 F. Ding, F. Lipparini, F. Egidi, J. Goings, B. Peng, A. Petrone, 
 T. Henderson, D. Ranasinghe, V. G. Zakrzewski, J. Gao, N. Rega, 
 G. Zheng, W. Liang, M. Hada, M. Ehara, K. Toyota, R. Fukuda, 
 J. Hasegawa, M. Ishida, T. Nakajima, Y. Honda, O. Kitao, H. Nakai, 
 T. Vreven, K. Throssell, J. A. Montgomery, Jr., J. E. Peralta, 
 F. Ogliaro, M. J. Bearpark, J. J. Heyd, E. N. Brothers, K. N. Kudin, 
 V. N. Staroverov, T. A. Keith, R. Kobayashi, J. Normand, 
 K. Raghavachari, A. P. Rendell, J. C. Burant, S. S. Iyengar, 
 J. Tomasi, M. Cossi, J. M. Millam, M. Klene, C. Adamo, R. Cammi, 
 J. W. Ochterski, R. L. Martin, K. Morokuma, O. Farkas, 
 J. B. Foresman, and D. J. Fox, Gaussian, Inc., Wallingford CT, 2016.
 
 ******************************************
 Gaussian 16:  ES64L-G16RevA.03 25-Dec-2016
                22-Sep-2023 
 ******************************************
 %nprocshared=4
 Will use up to    4 processors via shared memory.
 %mem=4GB
 ----------------
 # 6-31g(d) wb97x
 ----------------
 1/38=1,172=1/1;
 2/12=2,17=6,18=5,40=1/2;
 3/5=1,6=6,7=1,11=2,25=1,30=1,74=-57/1,2,3;
 4//1;
 5/5=2,38=5/2;
 6/7=2,8=2,9=2,10=2,28=1/1;
 99/5=1,9=1/99;
 --------------------
 tmpdir/M3_ref_40.gjf
 --------------------
 Symbolic Z-matrix:
 Charge =  0 Multiplicity = 1
 H                    -6.50293   5.07232   7.41594 
 C                    -6.01244   5.82644   8.04295 
 C                    -4.50317   5.69639   7.90467 
 H                    -6.35717   6.8631    7.70797 
 H                    -6.29645   5.62671   9.09586 
 H                    -4.18464   4.71112   8.2622 
 H                    -4.22933   5.77522   6.83472 
 H                    -3.97559   6.50417   8.52289 
 
                          Input orientation:                          
 ---------------------------------------------------------------------
 Center     Atomic      Atomic             Coordinates (Angstroms)
 Number     Number       Type             X           Y           Z
 ---------------------------------------------------------------------
      1          1           0       -6.502930    5.072316    7.415941
      2          6           0       -6.012439    5.826435    8.042950
      3          6           0       -4.503170    5.696389    7.904672
      4          1           0       -6.357172    6.863095    7.707969
      5          1           0       -6.296451    5.626708    9.095864
      6          1           0       -4.184637    4.711122    8.262198
      7          1           0       -4.229328    5.775223    6.834721
      8          1           0       -3.975593    6.504170    8.522886
 ---------------------------------------------------------------------
                    Distance matrix (angstroms):
                    1          2          3          4          5
     1  H    0.000000
     2  C    1.096548   0.000000
     3  C    2.151131   1.521159   0.000000
     4  H    1.820279   1.142680   2.199368   0.000000
     5  H    1.781046   1.108685   2.153985   1.859729   0.000000
     6  H    2.494212   2.152406   1.095463   3.107743   2.448072
     7  H    2.449727   2.154513   1.107249   2.544356   3.067217
     8  H    3.108531   2.199637   1.145878   2.542604   2.546493
                    6          7          8
     6  H    0.000000
     7  H    1.781011   0.000000
     8  H    1.823919   1.856245   0.000000
 Stoichiometry    C2H6
 Framework group  C1[X(C2H6)]
 Deg. of freedom    18
 Full point group                 C1      NOp   1
 Largest Abelian subgroup         C1      NOp   1
 Largest concise Abelian subgroup C1      NOp   1
                         Standard orientation:                         
 ---------------------------------------------------------------------
 Center     Atomic      Atomic             Coordinates (Angstroms)
 Number     Number       Type             X           Y           Z
 ---------------------------------------------------------------------
      1          1           0        1.129862   -0.808271    0.636556
      2          6           0        0.760697    0.001117   -0.004557
      3          6           0       -0.760437    0.000637    0.004256
      4          1           0        1.162892    0.995010    0.390580
      5          1           0        1.115219   -0.196885   -1.036202
      6          1           0       -1.130317   -0.943822   -0.409537
      7          1           0       -1.116633    0.076939    1.049867
      8          1           0       -1.162585    0.866502   -0.629456
 ---------------------------------------------------------------------
 Rotational constants (GHZ):          75.6607934          20.2019672          20.1762252
 Standard basis: 6-31G(d) (6D, 7F)
 There are    42 symmetry adapted cartesian basis functions of A   symmetry.
 There are    42 symmetry adapted basis functions of A   symmetry.
    42 basis functions,    80 primitive gaussians,    42 cartesian basis functions
     9 alpha electrons        9 beta electrons
       nuclear repulsion energy        41.9101890620 Hartrees.
 NAtoms=    8 NActive=    8 NUniq=    8 SFac= 1.00D+00 NAtFMM=   60 NAOKFM=F Big=F
 Integral buffers will be    131072 words long.
 Raffenetti 2 integral format.
 Two-electron integral symmetry is turned on.
 One-electron integrals computed using PRISM.
 NBasis=    42 RedAO= T EigKep=  8.19D-03  NBF=    42
 NBsUse=    42 1.00D-06 EigRej= -1.00D+00 NBFU=    42
 ExpMin= 1.61D-01 ExpMax= 3.05D+03 ExpMxC= 4.57D+02 IAcc=3 IRadAn=         5 AccDes= 0.00D+00
 Harris functional with IExCor= 4538 and IRadAn=       5 diagonalized for initial guess.
 HarFok:  IExCor= 4538 AccDes= 0.00D+00 IRadAn=         5 IDoV= 1 UseB2=F ITyADJ=14
 ICtDFT=  3500011 ScaDFX=  1.000000  1.000000  1.000000  1.000000
 FoFCou: FMM=F IPFlag=           0 FMFlag=      100000 FMFlg1=           0
         NFxFlg=           0 DoJE=T BraDBF=F KetDBF=T FulRan=T
         wScrn=  0.000000 ICntrl=       500 IOpCl=  0 I1Cent=   200000004 NGrid=           0
         NMat0=    1 NMatS0=      1 NMatT0=    0 NMatD0=    1 NMtDS0=    0 NMtDT0=    0
 Petite list used in FoFCou.
 Keep R1 ints in memory in canonical form, NReq=4269602.
 Requested convergence on RMS density matrix=1.00D-08 within 128 cycles.
 Requested convergence on MAX density matrix=1.00D-06.
 Requested convergence on             energy=1.00D-06.
 No special actions if energy rises.
 Integral accuracy reduced to 1.0D-05 until final iterations.
 Initial convergence to 1.0D-05 achieved.  Increase integral accuracy.
 SCF Done:  E(RwB97X) =  -79.7972300539     A.U. after   11 cycles
            NFock= 11  Conv=0.84D-08     -V/T= 2.0123

 **********************************************************************

            Population analysis using the SCF density.

 **********************************************************************

 Orbital symmetries:
       Occupied  (A) (A) (A) (A) (A) (A) (A) (A) (A)
       Virtual   (A) (A) (A) (A) (A) (A) (A) (A) (A) (A) (A) (A)
                 (A) (A) (A) (A) (A) (A) (A) (A) (A) (A) (A) (A)
                 (A) (A) (A) (A) (A) (A) (A) (A) (A)
 The electronic state is 1-A.
 Alpha  occ. eigenvalues --  -10.26092 -10.26074  -0.87883  -0.72433  -0.54414
 Alpha  occ. eigenvalues --   -0.54056  -0.46029  -0.43971  -0.43703
 Alpha virt. eigenvalues --    0.19232   0.25199   0.25263   0.25840   0.28138
 Alpha virt. eigenvalues --    0.28375   0.33629   0.61326   0.66122   0.66185
 Alpha virt. eigenvalues --    0.73870   0.74717   0.78883   0.97461   0.98823
 Alpha virt. eigenvalues --    1.00431   1.02362   1.03821   1.08711   1.17189
 Alpha virt. eigenvalues --    1.54900   1.61592   1.61926   2.05513   2.10139
 Alpha virt. eigenvalues --    2.11308   2.34750   2.37011   2.40460   2.41420
 Alpha virt. eigenvalues --    2.70873   4.26571   4.48506
          Condensed to atoms (all electrons):
               1          2          3          4          5          6
     1  H    0.551629   0.387848  -0.037248  -0.026783  -0.029145  -0.002976
     2  C    0.387848   5.058105   0.351065   0.383991   0.387165  -0.037013
     3  C   -0.037248   0.351065   5.058220  -0.035135  -0.038089   0.388057
     4  H   -0.026783   0.383991  -0.035135   0.556635  -0.023042   0.004146
     5  H   -0.029145   0.387165  -0.038089  -0.023042   0.551344  -0.004166
     6  H   -0.002976  -0.037013   0.388057   0.004146  -0.004166   0.550239
     7  H   -0.004200  -0.037970   0.387235  -0.002868   0.004483  -0.029013
     8  H    0.004180  -0.035351   0.383596  -0.003874  -0.002918  -0.026488
               7          8
     1  H   -0.004200   0.004180
     2  C   -0.037970  -0.035351
     3  C    0.387235   0.383596
     4  H   -0.002868  -0.003874
     5  H    0.004483  -0.002918
     6  H   -0.029013  -0.026488
     7  H    0.551227  -0.023496
     8  H   -0.023496   0.558617
 Mulliken charges:
               1
     1  H    0.156694
     2  C   -0.457840
     3  C   -0.457702
     4  H    0.146930
     5  H    0.154368
     6  H    0.157214
     7  H    0.154602
     8  H    0.145735
 Sum of Mulliken charges =   0.00000
 Mulliken charges with hydrogens summed into heavy atoms:
               1
     2  C    0.000151
     3  C   -0.000151
 Electronic spatial extent (au):  <R**2>=            109.6316
 Charge=             -0.0000 electrons
 Dipole moment (field-independent basis, Debye):
    X=              0.0005    Y=             -0.0847    Z=              0.0139  Tot=              0.0859
 Quadrupole moment (field-independent basis, Debye-Ang):
   XX=            -15.7244   YY=            -14.6754   ZZ=            -14.6649
   XY=              0.0103   XZ=              0.0440   YZ=              0.0131
 Traceless Quadrupole moment (field-independent basis, Debye-Ang):
   XX=             -0.7028   YY=              0.3462   ZZ=              0.3566
   XY=              0.0103   XZ=              0.0440   YZ=              0.0131
 Octapole moment (field-independent basis, Debye-Ang**2):
  XXX=             -0.0004  YYY=             -0.1182  ZZZ=              0.0795  XYY=              0.0411
  XXY=             -0.1366  XXZ=              0.0302  XZZ=             -0.0381  YZZ=             -0.1844
  YYZ=             -0.0322  XYZ=              0.1720
 Hexadecapole moment (field-independent basis, Debye-Ang**3):
 XXXX=            -93.0817 YYYY=            -29.5299 ZZZZ=            -29.2182 XXXY=              0.0456
 XXXZ=              0.1536 YYYX=              0.5657 YYYZ=              0.0241 ZZZX=             -1.3460
 ZZZY=              0.0332 XXYY=            -19.0437 XXZZ=            -19.1385 YYZZ=             -9.7888
 XXYZ=              0.0047 YYXZ=              1.3574 ZZXY=             -0.5460
 N-N= 4.191018906204D+01 E-N=-2.674655525315D+02  KE= 7.882448896509D+01
 1\1\GINC-NODE86\SP\RwB97X\6-31G(d)\C2H6\YANZ\22-Sep-2023\0\\# 6-31g(d)
  wb97x\\tmpdir/M3_ref_40.gjf\\0,1\H,0,-6.50293,5.072316,7.415941\C,0,-
 6.012439,5.826435,8.04295\C,0,-4.50317,5.696389,7.904672\H,0,-6.357171
 63,6.86309548,7.7079694\H,0,-6.296451,5.626708,9.095864\H,0,-4.184637,
 4.711122,8.262198\H,0,-4.229328,5.775223,6.834721\H,0,-3.97559313,6.50
 417015,8.52288616\\Version=ES64L-G16RevA.03\State=1-A\HF=-79.7972301\R
 MSD=8.436e-09\Dipole=-0.003582,-0.0330061,-0.0062604\Quadrupole=-0.507
 2538,0.253804,0.2534499,0.0564815,0.0976783,-0.0176148\PG=C01 [X(C2H6)
 ]\\@


 TERENCE, THIS IS STUPID STUFF:
 YOU EAT YOUR VICTUALS FAST ENOUGH;
 THERE CAN'T BE MUCH AMISS, 'TIS CLEAR
 TO SEE THE RATE YOU DRINK YOUR BEER.
 BUT OH, GOOD LORD, THE VERSE YOU MAKE,
 IT GIVES A CHAP THE BELLY-ACHE.
 THE COW, THE OLD COW, SHE IS DEAD;
 IT SLEEPS WELL, THE HORNED HEAD:
 WE POOR LADS, 'TIS OUR TURN NOW
 TO HEAR SUCH TUNES AS KILLED THE COW.
 PRETTY FRIENDSHIP 'TIS TO RHYME
 YOUR FRIENDS TO DEATH BEFORE THEIR TIME.
 MOPING, MELANCHOLY MAD:
 COME PIPE A TUNE TO DANCE TO, LAD.

     -- A. E. HOUSMAN
 Job cpu time:       0 days  0 hours  0 minutes 11.1 seconds.
 Elapsed time:       0 days  0 hours  0 minutes  2.9 seconds.
 File lengths (MBytes):  RWF=      6 Int=      0 D2E=      0 Chk=      1 Scr=      1
 Normal termination of Gaussian 16 at Fri Sep 22 11:08:51 2023.
