 Entering Gaussian System, Link 0=g16
 Initial command:
 /share/apps/gaussian/g16/l1.exe "/tmp/55478.mgr/Gau-302344.inp" -scrdir="/tmp/55478.mgr/"
 Entering Link 1 = /share/apps/gaussian/g16/l1.exe PID=    302345.
  
 Copyright (c) 1988,1990,1992,1993,1995,1998,2003,2009,2016,
            Gaussian, Inc.  All Rights Reserved.
  
 This is part of the Gaussian(R) 16 program.  It is based on
 the Gaussian(R) 09 system (copyright 2009, Gaussian, Inc.),
 the Gaussian(R) 03 system (copyright 2003, Gaussian, Inc.),
 the Gaussian(R) 98 system (copyright 1998, Gaussian, Inc.),
 the Gaussian(R) 94 system (copyright 1995, Gaussian, Inc.),
 the Gaussian 92(TM) system (copyright 1992, Gaussian, Inc.),
 the Gaussian 90(TM) system (copyright 1990, Gaussian, Inc.),
 the Gaussian 88(TM) system (copyright 1988, Gaussian, Inc.),
 the Gaussian 86(TM) system (copyright 1986, Carnegie Mellon
 University), and the Gaussian 82(TM) system (copyright 1983,
 Carnegie Mellon University). Gaussian is a federally registered
 trademark of Gaussian, Inc.
  
 This software contains proprietary and confidential information,
 including trade secrets, belonging to Gaussian, Inc.
  
 This software is provided under written license and may be
 used, copied, transmitted, or stored only in accord with that
 written license.
  
 The following legend is applicable only to US Government
 contracts under FAR:
  
                    RESTRICTED RIGHTS LEGEND
  
 Use, reproduction and disclosure by the US Government is
 subject to restrictions as set forth in subparagraphs (a)
 and (c) of the Commercial Computer Software - Restricted
 Rights clause in FAR 52.227-19.
  
 Gaussian, Inc.
 340 Quinnipiac St., Bldg. 40, Wallingford CT 06492
  
  
 ---------------------------------------------------------------
 Warning -- This program may not be used in any manner that
 competes with the business of Gaussian, Inc. or will provide
 assistance to any competitor of Gaussian, Inc.  The licensee
 of this program is prohibited from giving any competitor of
 Gaussian, Inc. access to this program.  By using this program,
 the user acknowledges that Gaussian, Inc. is engaged in the
 business of creating and licensing software in the field of
 computational chemistry and represents and warrants to the
 licensee that it is not a competitor of Gaussian, Inc. and that
 it will not use this program in any manner prohibited above.
 ---------------------------------------------------------------
  

 Cite this work as:
 Gaussian 16, Revision A.03,
 M. J. Frisch, G. W. Trucks, H. B. Schlegel, G. E. Scuseria, 
 M. A. Robb, J. R. Cheeseman, G. Scalmani, V. Barone, 
 G. A. Petersson, H. Nakatsuji, X. Li, M. Caricato, A. V. Marenich, 
 J. Bloino, B. G. Janesko, R. Gomperts, B. Mennucci, H. P. Hratchian, 
 J. V. Ortiz, A. F. Izmaylov, J. L. Sonnenberg, D. Williams-Young, 
 F. Ding, F. Lipparini, F. Egidi, J. Goings, B. Peng, A. Petrone, 
 T. Henderson, D. Ranasinghe, V. G. Zakrzewski, J. Gao, N. Rega, 
 G. Zheng, W. Liang, M. Hada, M. Ehara, K. Toyota, R. Fukuda, 
 J. Hasegawa, M. Ishida, T. Nakajima, Y. Honda, O. Kitao, H. Nakai, 
 T. Vreven, K. Throssell, J. A. Montgomery, Jr., J. E. Peralta, 
 F. Ogliaro, M. J. Bearpark, J. J. Heyd, E. N. Brothers, K. N. Kudin, 
 V. N. Staroverov, T. A. Keith, R. Kobayashi, J. Normand, 
 K. Raghavachari, A. P. Rendell, J. C. Burant, S. S. Iyengar, 
 J. Tomasi, M. Cossi, J. M. Millam, M. Klene, C. Adamo, R. Cammi, 
 J. W. Ochterski, R. L. Martin, K. Morokuma, O. Farkas, 
 J. B. Foresman, and D. J. Fox, Gaussian, Inc., Wallingford CT, 2016.
 
 ******************************************
 Gaussian 16:  ES64L-G16RevA.03 25-Dec-2016
                22-Sep-2023 
 ******************************************
 %nprocshared=4
 Will use up to    4 processors via shared memory.
 %mem=4GB
 ----------------
 # 6-31g(d) wb97x
 ----------------
 1/38=1,172=1/1;
 2/12=2,17=6,18=5,40=1/2;
 3/5=1,6=6,7=1,11=2,25=1,30=1,74=-57/1,2,3;
 4//1;
 5/5=2,38=5/2;
 6/7=2,8=2,9=2,10=2,28=1/1;
 99/5=1,9=1/99;
 --------------------
 tmpdir/M3_ref_58.gjf
 --------------------
 Symbolic Z-matrix:
 Charge =  0 Multiplicity = 1
 N                    -3.83196   6.72409   8.69119 
 C                    -2.38771   6.59016   8.63575 
 H                    -2.01589   6.56011   7.59246 
 H                    -4.1384    7.64839   8.38861 
 H                    -4.30193   6.0045    8.14048 
 H                    -1.95354   7.48965   9.09299 
 H                    -2.01715   5.7128    9.17905 
 
                          Input orientation:                          
 ---------------------------------------------------------------------
 Center     Atomic      Atomic             Coordinates (Angstroms)
 Number     Number       Type             X           Y           Z
 ---------------------------------------------------------------------
      1          7           0       -3.831962    6.724086    8.691193
      2          6           0       -2.387713    6.590156    8.635750
      3          1           0       -2.015890    6.560106    7.592464
      4          1           0       -4.138405    7.648387    8.388610
      5          1           0       -4.301934    6.004504    8.140480
      6          1           0       -1.953540    7.489653    9.092992
      7          1           0       -2.017152    5.712796    9.179054
 ---------------------------------------------------------------------
                    Distance matrix (angstroms):
                    1          2          3          4          5
     1  N    0.000000
     2  C    1.451505   0.000000
     3  H    2.128899   1.107972   0.000000
     4  H    1.019704   2.060547   2.514612   0.000000
     5  H    1.020763   2.062165   2.415577   1.670528   0.000000
     6  H    2.067850   1.098486   1.766219   2.301083   2.937329
     7  H    2.134069   1.096474   1.798667   2.978427   2.526650
                    6          7
     6  H    0.000000
     7  H    1.780077   0.000000
 Stoichiometry    CH5N
 Framework group  C1[X(CH5N)]
 Deg. of freedom    15
 Full point group                 C1      NOp   1
 Largest Abelian subgroup         C1      NOp   1
 Largest concise Abelian subgroup C1      NOp   1
                         Standard orientation:                         
 ---------------------------------------------------------------------
 Center     Atomic      Atomic             Coordinates (Angstroms)
 Number     Number       Type             X           Y           Z
 ---------------------------------------------------------------------
      1          7           0        0.741526   -0.007112   -0.115318
      2          6           0       -0.704440   -0.006500    0.011365
      3          1           0       -1.026399   -0.128954    1.064431
      4          1           0        1.156170    0.838765    0.275012
      5          1           0        1.160719   -0.831223    0.317204
      6          1           0       -1.064941    0.980302   -0.309466
      7          1           0       -1.189592   -0.770107   -0.608140
 ---------------------------------------------------------------------
 Rotational constants (GHZ):         102.5686790          23.0555572          22.0002977
 Standard basis: 6-31G(d) (6D, 7F)
 There are    40 symmetry adapted cartesian basis functions of A   symmetry.
 There are    40 symmetry adapted basis functions of A   symmetry.
    40 basis functions,    76 primitive gaussians,    40 cartesian basis functions
     9 alpha electrons        9 beta electrons
       nuclear repulsion energy        42.0075704775 Hartrees.
 NAtoms=    7 NActive=    7 NUniq=    7 SFac= 1.00D+00 NAtFMM=   60 NAOKFM=F Big=F
 Integral buffers will be    131072 words long.
 Raffenetti 2 integral format.
 Two-electron integral symmetry is turned on.
 One-electron integrals computed using PRISM.
 NBasis=    40 RedAO= T EigKep=  9.08D-03  NBF=    40
 NBsUse=    40 1.00D-06 EigRej= -1.00D+00 NBFU=    40
 ExpMin= 1.61D-01 ExpMax= 4.17D+03 ExpMxC= 6.27D+02 IAcc=3 IRadAn=         5 AccDes= 0.00D+00
 Harris functional with IExCor= 4538 and IRadAn=       5 diagonalized for initial guess.
 HarFok:  IExCor= 4538 AccDes= 0.00D+00 IRadAn=         5 IDoV= 1 UseB2=F ITyADJ=14
 ICtDFT=  3500011 ScaDFX=  1.000000  1.000000  1.000000  1.000000
 FoFCou: FMM=F IPFlag=           0 FMFlag=      100000 FMFlg1=           0
         NFxFlg=           0 DoJE=T BraDBF=F KetDBF=T FulRan=T
         wScrn=  0.000000 ICntrl=       500 IOpCl=  0 I1Cent=   200000004 NGrid=           0
         NMat0=    1 NMatS0=      1 NMatT0=    0 NMatD0=    1 NMtDS0=    0 NMtDT0=    0
 Petite list used in FoFCou.
 Keep R1 ints in memory in canonical form, NReq=4125853.
 Requested convergence on RMS density matrix=1.00D-08 within 128 cycles.
 Requested convergence on MAX density matrix=1.00D-06.
 Requested convergence on             energy=1.00D-06.
 No special actions if energy rises.
 Integral accuracy reduced to 1.0D-05 until final iterations.
 Initial convergence to 1.0D-05 achieved.  Increase integral accuracy.
 SCF Done:  E(RwB97X) =  -95.8212406993     A.U. after   12 cycles
            NFock= 12  Conv=0.96D-08     -V/T= 2.0102

 **********************************************************************

            Population analysis using the SCF density.

 **********************************************************************

 Orbital symmetries:
       Occupied  (A) (A) (A) (A) (A) (A) (A) (A) (A)
       Virtual   (A) (A) (A) (A) (A) (A) (A) (A) (A) (A) (A) (A)
                 (A) (A) (A) (A) (A) (A) (A) (A) (A) (A) (A) (A)
                 (A) (A) (A) (A) (A) (A) (A)
 The electronic state is 1-A.
 Alpha  occ. eigenvalues --  -14.38071 -10.28027  -0.99389  -0.77498  -0.59827
 Alpha  occ. eigenvalues --   -0.53726  -0.50893  -0.46669  -0.32183
 Alpha virt. eigenvalues --    0.18429   0.24036   0.24937   0.28012   0.29404
 Alpha virt. eigenvalues --    0.34456   0.66185   0.67147   0.69993   0.84978
 Alpha virt. eigenvalues --    0.87541   0.90344   0.97799   1.02883   1.04103
 Alpha virt. eigenvalues --    1.05053   1.08551   1.15725   1.48392   1.62817
 Alpha virt. eigenvalues --    1.65237   2.05334   2.12431   2.16424   2.32593
 Alpha virt. eigenvalues --    2.41536   2.47583   2.56739   2.77115   3.88883
 Alpha virt. eigenvalues --    4.37300
          Condensed to atoms (all electrons):
               1          2          3          4          5          6
     1  N    6.899046   0.307969  -0.055083   0.332471   0.332350  -0.036793
     2  C    0.307969   4.922382   0.387482  -0.035874  -0.038322   0.391289
     3  H   -0.055083   0.387482   0.623002  -0.001365  -0.004440  -0.036925
     4  H    0.332471  -0.035874  -0.001365   0.426417  -0.029356  -0.005846
     5  H    0.332350  -0.038322  -0.004440  -0.029356   0.428845   0.005006
     6  H   -0.036793   0.391289  -0.036925  -0.005846   0.005006   0.547837
     7  H   -0.036801   0.390381  -0.040587   0.004419  -0.001466  -0.023681
               7
     1  N   -0.036801
     2  C    0.390381
     3  H   -0.040587
     4  H    0.004419
     5  H   -0.001466
     6  H   -0.023681
     7  H    0.542816
 Mulliken charges:
               1
     1  N   -0.743160
     2  C   -0.325307
     3  H    0.127917
     4  H    0.309134
     5  H    0.307384
     6  H    0.159113
     7  H    0.164920
 Sum of Mulliken charges =  -0.00000
 Mulliken charges with hydrogens summed into heavy atoms:
               1
     1  N   -0.126642
     2  C    0.126642
 Electronic spatial extent (au):  <R**2>=             94.5312
 Charge=             -0.0000 electrons
 Dipole moment (field-independent basis, Debye):
    X=             -0.1302    Y=              0.0830    Z=              1.3618  Tot=              1.3705
 Quadrupole moment (field-independent basis, Debye-Ang):
   XX=            -13.4412   YY=            -12.2358   ZZ=            -15.2646
   XY=              0.0554   XZ=              2.0699   YZ=             -0.0013
 Traceless Quadrupole moment (field-independent basis, Debye-Ang):
   XX=              0.2060   YY=              1.4114   ZZ=             -1.6174
   XY=              0.0554   XZ=              2.0699   YZ=             -0.0013
 Octapole moment (field-independent basis, Debye-Ang**2):
  XXX=              3.4157  YYY=              0.4066  ZZZ=              1.4982  XYY=              2.2197
  XXY=             -0.0014  XXZ=              1.8877  XZZ=             -0.4533  YZZ=             -0.1984
  YYZ=              0.3746  XYZ=             -0.2111
 Hexadecapole moment (field-independent basis, Debye-Ang**3):
 XXXX=            -72.2996 YYYY=            -22.4639 ZZZZ=            -23.3296 XXXY=              0.2679
 XXXZ=              3.9211 YYYX=             -0.2658 YYYZ=             -0.0343 ZZZX=              1.6029
 ZZZY=              0.0506 XXYY=            -13.5540 XXZZ=            -16.8434 YYZZ=             -7.7210
 XXYZ=              0.1416 YYXZ=              1.7971 ZZXY=              0.2356
 N-N= 4.200757047747D+01 E-N=-3.064366061633D+02  KE= 9.485728987393D+01
 1\1\GINC-NODE86\SP\RwB97X\6-31G(d)\C1H5N1\YANZ\22-Sep-2023\0\\# 6-31g(
 d) wb97x\\tmpdir/M3_ref_58.gjf\\0,1\N,0,-3.831962,6.724086,8.691193\C,
 0,-2.387713,6.590156,8.63575\H,0,-2.01589,6.560106,7.592464\H,0,-4.138
 40462,7.64838729,8.38860982\H,0,-4.30193446,6.00450387,8.14047965\H,0,
 -1.95354,7.489653,9.092992\H,0,-2.01715214,5.71279603,9.17905395\\Vers
 ion=ES64L-G16RevA.03\State=1-A\HF=-95.8212407\RMSD=9.601e-09\Dipole=0.
 0865183,0.0901241,-0.5245218\Quadrupole=-0.036653,1.0541427,-1.0174897
 ,-0.1347903,1.5978326,0.1006774\PG=C01 [X(C1H5N1)]\\@


 QUANTUM MECHANICS IS BOHRING -- M.S. GORDON
 Job cpu time:       0 days  0 hours  0 minutes 11.1 seconds.
 Elapsed time:       0 days  0 hours  0 minutes  2.9 seconds.
 File lengths (MBytes):  RWF=      6 Int=      0 D2E=      0 Chk=      1 Scr=      1
 Normal termination of Gaussian 16 at Fri Sep 22 11:09:17 2023.
