 Entering Gaussian System, Link 0=g16
 Initial command:
 /share/apps/gaussian/g16/l1.exe "/tmp/55478.mgr/Gau-301846.inp" -scrdir="/tmp/55478.mgr/"
 Entering Link 1 = /share/apps/gaussian/g16/l1.exe PID=    301847.
  
 Copyright (c) 1988,1990,1992,1993,1995,1998,2003,2009,2016,
            Gaussian, Inc.  All Rights Reserved.
  
 This is part of the Gaussian(R) 16 program.  It is based on
 the Gaussian(R) 09 system (copyright 2009, Gaussian, Inc.),
 the Gaussian(R) 03 system (copyright 2003, Gaussian, Inc.),
 the Gaussian(R) 98 system (copyright 1998, Gaussian, Inc.),
 the Gaussian(R) 94 system (copyright 1995, Gaussian, Inc.),
 the Gaussian 92(TM) system (copyright 1992, Gaussian, Inc.),
 the Gaussian 90(TM) system (copyright 1990, Gaussian, Inc.),
 the Gaussian 88(TM) system (copyright 1988, Gaussian, Inc.),
 the Gaussian 86(TM) system (copyright 1986, Carnegie Mellon
 University), and the Gaussian 82(TM) system (copyright 1983,
 Carnegie Mellon University). Gaussian is a federally registered
 trademark of Gaussian, Inc.
  
 This software contains proprietary and confidential information,
 including trade secrets, belonging to Gaussian, Inc.
  
 This software is provided under written license and may be
 used, copied, transmitted, or stored only in accord with that
 written license.
  
 The following legend is applicable only to US Government
 contracts under FAR:
  
                    RESTRICTED RIGHTS LEGEND
  
 Use, reproduction and disclosure by the US Government is
 subject to restrictions as set forth in subparagraphs (a)
 and (c) of the Commercial Computer Software - Restricted
 Rights clause in FAR 52.227-19.
  
 Gaussian, Inc.
 340 Quinnipiac St., Bldg. 40, Wallingford CT 06492
  
  
 ---------------------------------------------------------------
 Warning -- This program may not be used in any manner that
 competes with the business of Gaussian, Inc. or will provide
 assistance to any competitor of Gaussian, Inc.  The licensee
 of this program is prohibited from giving any competitor of
 Gaussian, Inc. access to this program.  By using this program,
 the user acknowledges that Gaussian, Inc. is engaged in the
 business of creating and licensing software in the field of
 computational chemistry and represents and warrants to the
 licensee that it is not a competitor of Gaussian, Inc. and that
 it will not use this program in any manner prohibited above.
 ---------------------------------------------------------------
  

 Cite this work as:
 Gaussian 16, Revision A.03,
 M. J. Frisch, G. W. Trucks, H. B. Schlegel, G. E. Scuseria, 
 M. A. Robb, J. R. Cheeseman, G. Scalmani, V. Barone, 
 G. A. Petersson, H. Nakatsuji, X. Li, M. Caricato, A. V. Marenich, 
 J. Bloino, B. G. Janesko, R. Gomperts, B. Mennucci, H. P. Hratchian, 
 J. V. Ortiz, A. F. Izmaylov, J. L. Sonnenberg, D. Williams-Young, 
 F. Ding, F. Lipparini, F. Egidi, J. Goings, B. Peng, A. Petrone, 
 T. Henderson, D. Ranasinghe, V. G. Zakrzewski, J. Gao, N. Rega, 
 G. Zheng, W. Liang, M. Hada, M. Ehara, K. Toyota, R. Fukuda, 
 J. Hasegawa, M. Ishida, T. Nakajima, Y. Honda, O. Kitao, H. Nakai, 
 T. Vreven, K. Throssell, J. A. Montgomery, Jr., J. E. Peralta, 
 F. Ogliaro, M. J. Bearpark, J. J. Heyd, E. N. Brothers, K. N. Kudin, 
 V. N. Staroverov, T. A. Keith, R. Kobayashi, J. Normand, 
 K. Raghavachari, A. P. Rendell, J. C. Burant, S. S. Iyengar, 
 J. Tomasi, M. Cossi, J. M. Millam, M. Klene, C. Adamo, R. Cammi, 
 J. W. Ochterski, R. L. Martin, K. Morokuma, O. Farkas, 
 J. B. Foresman, and D. J. Fox, Gaussian, Inc., Wallingford CT, 2016.
 
 ******************************************
 Gaussian 16:  ES64L-G16RevA.03 25-Dec-2016
                22-Sep-2023 
 ******************************************
 %nprocshared=4
 Will use up to    4 processors via shared memory.
 %mem=4GB
 ----------------
 # 6-31g(d) wb97x
 ----------------
 1/38=1,172=1/1;
 2/12=2,17=6,18=5,40=1/2;
 3/5=1,6=6,7=1,11=2,25=1,30=1,74=-57/1,2,3;
 4//1;
 5/5=2,38=5/2;
 6/7=2,8=2,9=2,10=2,28=1/1;
 99/5=1,9=1/99;
 --------------------
 tmpdir/M3_ref_57.gjf
 --------------------
 Symbolic Z-matrix:
 Charge =  0 Multiplicity = 1
 C                    -2.38771   6.59016   8.63575 
 C                    -1.87581   5.37814   9.38629 
 C                    -2.47813   4.97969   10.58063 
 C                    -0.76388   4.67246   8.92584 
 H                    -3.34291   5.53224   10.93853 
 C                    -1.9838    3.89481   11.29402 
 H                    -0.28814   4.96982   7.99315 
 C                    -0.25734   3.59727   9.64421 
 H                    -2.4501    3.62849   12.24066 
 C                    -0.87166   3.18958   10.82761 
 H                     0.6155    3.05146   9.29743 
 H                    -3.52291   6.69543   8.67933 
 H                    -2.01589   6.56011   7.59246 
 H                    -1.95354   7.48965   9.09299 
 H                    -0.43468   2.34186   11.35068 
 
                          Input orientation:                          
 ---------------------------------------------------------------------
 Center     Atomic      Atomic             Coordinates (Angstroms)
 Number     Number       Type             X           Y           Z
 ---------------------------------------------------------------------
      1          6           0       -2.387713    6.590156    8.635750
      2          6           0       -1.875808    5.378142    9.386288
      3          6           0       -2.478125    4.979687   10.580633
      4          6           0       -0.763877    4.672461    8.925844
      5          1           0       -3.342912    5.532237   10.938530
      6          6           0       -1.983801    3.894813   11.294024
      7          1           0       -0.288137    4.969819    7.993150
      8          6           0       -0.257341    3.597273    9.644210
      9          1           0       -2.450104    3.628494   12.240661
     10          6           0       -0.871664    3.189582   10.827610
     11          1           0        0.615499    3.051459    9.297431
     12          1           0       -3.522909    6.695426    8.679329
     13          1           0       -2.015890    6.560106    7.592464
     14          1           0       -1.953540    7.489653    9.092992
     15          1           0       -0.434681    2.341862   11.350685
 ---------------------------------------------------------------------
                    Distance matrix (angstroms):
                    1          2          3          4          5
     1  C    0.000000
     2  C    1.514705   0.000000
     3  C    2.526728   1.395712   0.000000
     4  C    2.529536   1.395129   2.402366   0.000000
     5  H    2.708209   2.141400   1.086857   3.382535   0.000000
     6  C    3.807156   2.418963   1.389329   2.775109   2.157479
     7  H    2.728854   2.151339   3.389869   1.088425   4.280564
     8  C    3.809570   2.420218   2.778460   1.388761   3.865242
     9  H    4.665910   3.396841   2.140608   3.862802   2.473234
    10  C    4.320481   2.806334   2.417890   2.413972   3.406964
    11  H    4.688228   3.409979   3.864606   2.160649   4.951412
    12  H    1.140899   2.224403   2.765916   3.430075   2.547430
    13  H    1.107972   2.152781   3.411823   2.628430   3.743482
    14  H    1.098486   2.133200   2.964489   3.062647   3.027845
    15  H    5.406775   3.892904   3.424437   3.379337   4.336609
                    6          7          8          9         10
     6  C    0.000000
     7  H    3.863507   0.000000
     8  C    2.406466   2.147284   0.000000
     9  H    1.088341   4.951222   3.398638   0.000000
    10  C    1.397047   3.397633   1.394288   2.163523   0.000000
    11  H    3.384374   2.489541   1.086286   4.288764   2.138266
    12  H    4.129034   3.729921   4.603638   4.820796   4.892357
    13  H    4.561399   2.382161   4.010054   5.512588   4.809975
    14  H    4.215250   3.214465   4.281536   5.006291   4.761299
    15  H    2.194229   4.266225   2.125927   2.551355   1.087746
                   11         12         13         14         15
    11  H    0.000000
    12  H    5.548600   0.000000
    13  H    4.705499   1.862979   0.000000
    14  H    5.132185   1.806884   1.766219   0.000000
    15  H    2.412936   5.968821   5.866688   5.822703   0.000000
 Stoichiometry    C7H8
 Framework group  C1[X(C7H8)]
 Deg. of freedom    39
 Full point group                 C1      NOp   1
 Largest Abelian subgroup         C1      NOp   1
 Largest concise Abelian subgroup C1      NOp   1
                         Standard orientation:                         
 ---------------------------------------------------------------------
 Center     Atomic      Atomic             Coordinates (Angstroms)
 Number     Number       Type             X           Y           Z
 ---------------------------------------------------------------------
      1          6           0        2.419452   -0.010559    0.012056
      2          6           0        0.905199   -0.004105   -0.024405
      3          6           0        0.202751    1.201888   -0.011734
      4          6           0        0.187442   -1.200420   -0.018180
      5          1           0        0.764003    2.132612   -0.014430
      6          6           0       -1.186509    1.210636   -0.001024
      7          1           0        0.723234   -2.147717   -0.033190
      8          6           0       -1.201058   -1.195768    0.008353
      9          1           0       -1.708293    2.164598    0.045707
     10          6           0       -1.900970    0.010105    0.002509
     11          1           0       -1.765494   -2.123738    0.025749
     12          1           0        2.883945    0.841629   -0.587671
     13          1           0        2.790616   -0.999849   -0.321324
     14          1           0        2.741361    0.104768    1.055965
     15          1           0       -2.987213   -0.042956    0.023744
 ---------------------------------------------------------------------
 Rotational constants (GHZ):           5.5411355           2.5265698           1.7545471
 Standard basis: 6-31G(d) (6D, 7F)
 There are   121 symmetry adapted cartesian basis functions of A   symmetry.
 There are   121 symmetry adapted basis functions of A   symmetry.
   121 basis functions,   228 primitive gaussians,   121 cartesian basis functions
    25 alpha electrons       25 beta electrons
       nuclear repulsion energy       269.0975682595 Hartrees.
 NAtoms=   15 NActive=   15 NUniq=   15 SFac= 1.00D+00 NAtFMM=   60 NAOKFM=F Big=F
 Integral buffers will be    131072 words long.
 Raffenetti 2 integral format.
 Two-electron integral symmetry is turned on.
 One-electron integrals computed using PRISM.
 NBasis=   121 RedAO= T EigKep=  4.65D-04  NBF=   121
 NBsUse=   121 1.00D-06 EigRej= -1.00D+00 NBFU=   121
 ExpMin= 1.61D-01 ExpMax= 3.05D+03 ExpMxC= 4.57D+02 IAcc=3 IRadAn=         5 AccDes= 0.00D+00
 Harris functional with IExCor= 4538 and IRadAn=       5 diagonalized for initial guess.
 HarFok:  IExCor= 4538 AccDes= 0.00D+00 IRadAn=         5 IDoV= 1 UseB2=F ITyADJ=14
 ICtDFT=  3500011 ScaDFX=  1.000000  1.000000  1.000000  1.000000
 FoFCou: FMM=F IPFlag=           0 FMFlag=      100000 FMFlg1=           0
         NFxFlg=           0 DoJE=T BraDBF=F KetDBF=T FulRan=T
         wScrn=  0.000000 ICntrl=       500 IOpCl=  0 I1Cent=   200000004 NGrid=           0
         NMat0=    1 NMatS0=      1 NMatT0=    0 NMatD0=    1 NMtDS0=    0 NMtDT0=    0
 Petite list used in FoFCou.
 Keep R1 ints in memory in canonical form, NReq=58272328.
 Requested convergence on RMS density matrix=1.00D-08 within 128 cycles.
 Requested convergence on MAX density matrix=1.00D-06.
 Requested convergence on             energy=1.00D-06.
 No special actions if energy rises.
 Integral accuracy reduced to 1.0D-05 until final iterations.
 Initial convergence to 1.0D-05 achieved.  Increase integral accuracy.
 SCF Done:  E(RwB97X) =  -271.484328077     A.U. after   13 cycles
            NFock= 13  Conv=0.79D-08     -V/T= 2.0102

 **********************************************************************

            Population analysis using the SCF density.

 **********************************************************************

 Orbital symmetries:
       Occupied  (A) (A) (A) (A) (A) (A) (A) (A) (A) (A) (A) (A)
                 (A) (A) (A) (A) (A) (A) (A) (A) (A) (A) (A) (A)
                 (A)
       Virtual   (A) (A) (A) (A) (A) (A) (A) (A) (A) (A) (A) (A)
                 (A) (A) (A) (A) (A) (A) (A) (A) (A) (A) (A) (A)
                 (A) (A) (A) (A) (A) (A) (A) (A) (A) (A) (A) (A)
                 (A) (A) (A) (A) (A) (A) (A) (A) (A) (A) (A) (A)
                 (A) (A) (A) (A) (A) (A) (A) (A) (A) (A) (A) (A)
                 (A) (A) (A) (A) (A) (A) (A) (A) (A) (A) (A) (A)
                 (A) (A) (A) (A) (A) (A) (A) (A) (A) (A) (A) (A)
                 (A) (A) (A) (A) (A) (A) (A) (A) (A) (A) (A) (A)
 The electronic state is 1-A.
 Alpha  occ. eigenvalues --  -10.27770 -10.27103 -10.27022 -10.26822 -10.26731
 Alpha  occ. eigenvalues --  -10.26585 -10.26559  -0.98386  -0.89532  -0.86793
 Alpha  occ. eigenvalues --   -0.80338  -0.71985  -0.69577  -0.62012  -0.56305
 Alpha  occ. eigenvalues --   -0.55906  -0.52371  -0.52067  -0.50591  -0.48475
 Alpha  occ. eigenvalues --   -0.45978  -0.43516  -0.43045  -0.33699  -0.32506
 Alpha virt. eigenvalues --    0.08897   0.09053   0.18748   0.21374   0.23241
 Alpha virt. eigenvalues --    0.24680   0.26176   0.27281   0.28691   0.29501
 Alpha virt. eigenvalues --    0.30842   0.33591   0.40705   0.41941   0.43248
 Alpha virt. eigenvalues --    0.45145   0.55978   0.62650   0.62754   0.65517
 Alpha virt. eigenvalues --    0.66542   0.66928   0.68606   0.71085   0.71351
 Alpha virt. eigenvalues --    0.72826   0.73317   0.74381   0.76065   0.77325
 Alpha virt. eigenvalues --    0.81668   0.85627   0.86195   0.88543   0.95254
 Alpha virt. eigenvalues --    0.96252   0.96828   0.98486   0.99304   1.01906
 Alpha virt. eigenvalues --    1.04301   1.05408   1.06874   1.08315   1.12891
 Alpha virt. eigenvalues --    1.20399   1.22680   1.25555   1.30350   1.31934
 Alpha virt. eigenvalues --    1.36678   1.46181   1.48299   1.54306   1.56552
 Alpha virt. eigenvalues --    1.58621   1.59651   1.60414   1.62670   1.90264
 Alpha virt. eigenvalues --    1.91524   1.94239   1.99827   2.00873   2.02223
 Alpha virt. eigenvalues --    2.03703   2.09518   2.17567   2.18338   2.23705
 Alpha virt. eigenvalues --    2.24913   2.27343   2.30363   2.35828   2.38618
 Alpha virt. eigenvalues --    2.42719   2.43892   2.44966   2.52291   2.68297
 Alpha virt. eigenvalues --    2.68982   2.77605   2.83494   2.85684   2.86654
 Alpha virt. eigenvalues --    2.89464   2.97794   3.17395   3.53309   4.22411
 Alpha virt. eigenvalues --    4.24937   4.25205   4.35871   4.46219   4.52262
 Alpha virt. eigenvalues --    4.82236
          Condensed to atoms (all electrons):
               1          2          3          4          5          6
     1  C    5.184783   0.342777  -0.057969  -0.053908  -0.006023   0.005305
     2  C    0.342777   4.647262   0.568470   0.576494  -0.042502  -0.029658
     3  C   -0.057969   0.568470   4.915180  -0.039388   0.371709   0.546397
     4  C   -0.053908   0.576494  -0.039388   4.911578   0.004803  -0.041795
     5  H   -0.006023  -0.042502   0.371709   0.004803   0.555193  -0.037500
     6  C    0.005305  -0.029658   0.546397  -0.041795  -0.037500   4.855942
     7  H   -0.007055  -0.040397   0.004918   0.368675  -0.000142   0.000184
     8  C    0.005584  -0.031536  -0.040335   0.545281   0.000205  -0.035188
     9  H   -0.000152   0.003121  -0.035117   0.000605  -0.004072   0.369828
    10  C    0.000303  -0.031483  -0.042259  -0.043146   0.003767   0.557351
    11  H   -0.000140   0.003039   0.000572  -0.033716   0.000013   0.003872
    12  H    0.373388  -0.029750  -0.001815   0.001967   0.003229   0.000125
    13  H    0.376520  -0.036402   0.003085  -0.001299   0.000035  -0.000130
    14  H    0.373562  -0.030264  -0.002853  -0.001589   0.000618  -0.000133
    15  H    0.000006   0.000504   0.003308   0.003986  -0.000118  -0.034254
               7          8          9         10         11         12
     1  C   -0.007055   0.005584  -0.000152   0.000303  -0.000140   0.373388
     2  C   -0.040397  -0.031536   0.003121  -0.031483   0.003039  -0.029750
     3  C    0.004918  -0.040335  -0.035117  -0.042259   0.000572  -0.001815
     4  C    0.368675   0.545281   0.000605  -0.043146  -0.033716   0.001967
     5  H   -0.000142   0.000205  -0.004072   0.003767   0.000013   0.003229
     6  C    0.000184  -0.035188   0.369828   0.557351   0.003872   0.000125
     7  H    0.558138  -0.038551   0.000013   0.004063  -0.003959   0.000040
     8  C   -0.038551   4.854776   0.003634   0.560700   0.370466  -0.000112
     9  H    0.000013   0.003634   0.544473  -0.036439  -0.000144  -0.000003
    10  C    0.004063   0.560700  -0.036439   4.858136  -0.038135   0.000009
    11  H   -0.003959   0.370466  -0.000144  -0.038135   0.544970   0.000002
    12  H    0.000040  -0.000112  -0.000003   0.000009   0.000002   0.535750
    13  H    0.005064   0.000254   0.000002  -0.000000  -0.000005  -0.019193
    14  H    0.000318  -0.000194   0.000002   0.000045   0.000002  -0.026626
    15  H   -0.000150  -0.038443  -0.003387   0.372145  -0.004356  -0.000000
              13         14         15
     1  C    0.376520   0.373562   0.000006
     2  C   -0.036402  -0.030264   0.000504
     3  C    0.003085  -0.002853   0.003308
     4  C   -0.001299  -0.001589   0.003986
     5  H    0.000035   0.000618  -0.000118
     6  C   -0.000130  -0.000133  -0.034254
     7  H    0.005064   0.000318  -0.000150
     8  C    0.000254  -0.000194  -0.038443
     9  H    0.000002   0.000002  -0.003387
    10  C   -0.000000   0.000045   0.372145
    11  H   -0.000005   0.000002  -0.004356
    12  H   -0.019193  -0.026626  -0.000000
    13  H    0.534036  -0.027529  -0.000000
    14  H   -0.027529   0.535060  -0.000000
    15  H   -0.000000  -0.000000   0.542634
 Mulliken charges:
               1
     1  C   -0.536978
     2  C    0.130327
     3  C   -0.193904
     4  C   -0.198548
     5  H    0.150786
     6  C   -0.160344
     7  H    0.148843
     8  C   -0.156541
     9  H    0.157636
    10  C   -0.165055
    11  H    0.157518
    12  H    0.162991
    13  H    0.165562
    14  H    0.179582
    15  H    0.158125
 Sum of Mulliken charges =  -0.00000
 Mulliken charges with hydrogens summed into heavy atoms:
               1
     1  C   -0.028844
     2  C    0.130327
     3  C   -0.043117
     4  C   -0.049705
     6  C   -0.002708
     8  C    0.000977
    10  C   -0.006930
 Electronic spatial extent (au):  <R**2>=            715.7715
 Charge=             -0.0000 electrons
 Dipole moment (field-independent basis, Debye):
    X=              0.2818    Y=             -0.0112    Z=              0.1335  Tot=              0.3121
 Quadrupole moment (field-independent basis, Debye-Ang):
   XX=            -37.7126   YY=            -37.8593   ZZ=            -45.1318
   XY=              0.2563   XZ=              0.0327   YZ=              0.0049
 Traceless Quadrupole moment (field-independent basis, Debye-Ang):
   XX=              2.5220   YY=              2.3753   ZZ=             -4.8973
   XY=              0.2563   XZ=              0.0327   YZ=              0.0049
 Octapole moment (field-independent basis, Debye-Ang**2):
  XXX=             -6.2743  YYY=             -0.0394  ZZZ=              0.9316  XYY=             -0.9116
  XXY=             -0.3139  XXZ=              0.6094  XZZ=              3.0894  YZZ=              0.2110
  YYZ=             -0.3109  XYZ=             -0.2635
 Hexadecapole moment (field-independent basis, Debye-Ang**3):
 XXXX=           -601.5911 YYYY=           -280.7880 ZZZZ=            -53.4646 XXXY=              3.3600
 XXXZ=             -0.3669 YYYX=             -0.6171 YYYZ=              0.3810 ZZZX=              2.1832
 ZZZY=              0.0328 XXYY=           -142.2402 XXZZ=           -116.8192 YYZZ=            -64.9572
 XXYZ=             -0.6077 YYXZ=             -2.1493 ZZXY=              0.7289
 N-N= 2.690975682595D+02 E-N=-1.166066280492D+03  KE= 2.687478390039D+02
 1\1\GINC-NODE86\SP\RwB97X\6-31G(d)\C7H8\YANZ\22-Sep-2023\0\\# 6-31g(d)
  wb97x\\tmpdir/M3_ref_57.gjf\\0,1\C,0,-2.387713,6.590156,8.63575\C,0,-
 1.875808,5.378142,9.386288\C,0,-2.478125,4.979687,10.580633\C,0,-0.763
 877,4.672461,8.925844\H,0,-3.342912,5.532237,10.93853\C,0,-1.983801,3.
 894813,11.294024\H,0,-0.288137,4.969819,7.99315\C,0,-0.257341,3.597273
 ,9.64421\H,0,-2.450104,3.628494,12.240661\C,0,-0.871664,3.189582,10.82
 761\H,0,0.615499,3.051459,9.297431\H,0,-3.5229086,6.69542645,8.6793288
 1\H,0,-2.01589,6.560106,7.592464\H,0,-1.95354,7.489653,9.092992\H,0,-0
 .43468081,2.34186155,11.35068496\\Version=ES64L-G16RevA.03\State=1-A\H
 F=-271.4843281\RMSD=7.921e-09\Dipole=-0.0045579,0.1184822,-0.0318665\Q
 uadrupole=-0.1119782,-0.0908071,0.2027854,-2.1200495,-1.6612702,-1.642
 306\PG=C01 [X(C7H8)]\\@


 Democracy is the recurrent suspicion that more than half of the people
 are right more than half of the time.
 -- E. B. White
 Job cpu time:       0 days  0 hours  1 minutes  4.5 seconds.
 Elapsed time:       0 days  0 hours  0 minutes 16.8 seconds.
 File lengths (MBytes):  RWF=     10 Int=      0 D2E=      0 Chk=      2 Scr=      1
 Normal termination of Gaussian 16 at Fri Sep 22 11:09:14 2023.
