 Entering Gaussian System, Link 0=g16
 Initial command:
 /share/apps/gaussian/g16/l1.exe "/tmp/55478.mgr/Gau-300255.inp" -scrdir="/tmp/55478.mgr/"
 Entering Link 1 = /share/apps/gaussian/g16/l1.exe PID=    300264.
  
 Copyright (c) 1988,1990,1992,1993,1995,1998,2003,2009,2016,
            Gaussian, Inc.  All Rights Reserved.
  
 This is part of the Gaussian(R) 16 program.  It is based on
 the Gaussian(R) 09 system (copyright 2009, Gaussian, Inc.),
 the Gaussian(R) 03 system (copyright 2003, Gaussian, Inc.),
 the Gaussian(R) 98 system (copyright 1998, Gaussian, Inc.),
 the Gaussian(R) 94 system (copyright 1995, Gaussian, Inc.),
 the Gaussian 92(TM) system (copyright 1992, Gaussian, Inc.),
 the Gaussian 90(TM) system (copyright 1990, Gaussian, Inc.),
 the Gaussian 88(TM) system (copyright 1988, Gaussian, Inc.),
 the Gaussian 86(TM) system (copyright 1986, Carnegie Mellon
 University), and the Gaussian 82(TM) system (copyright 1983,
 Carnegie Mellon University). Gaussian is a federally registered
 trademark of Gaussian, Inc.
  
 This software contains proprietary and confidential information,
 including trade secrets, belonging to Gaussian, Inc.
  
 This software is provided under written license and may be
 used, copied, transmitted, or stored only in accord with that
 written license.
  
 The following legend is applicable only to US Government
 contracts under FAR:
  
                    RESTRICTED RIGHTS LEGEND
  
 Use, reproduction and disclosure by the US Government is
 subject to restrictions as set forth in subparagraphs (a)
 and (c) of the Commercial Computer Software - Restricted
 Rights clause in FAR 52.227-19.
  
 Gaussian, Inc.
 340 Quinnipiac St., Bldg. 40, Wallingford CT 06492
  
  
 ---------------------------------------------------------------
 Warning -- This program may not be used in any manner that
 competes with the business of Gaussian, Inc. or will provide
 assistance to any competitor of Gaussian, Inc.  The licensee
 of this program is prohibited from giving any competitor of
 Gaussian, Inc. access to this program.  By using this program,
 the user acknowledges that Gaussian, Inc. is engaged in the
 business of creating and licensing software in the field of
 computational chemistry and represents and warrants to the
 licensee that it is not a competitor of Gaussian, Inc. and that
 it will not use this program in any manner prohibited above.
 ---------------------------------------------------------------
  

 Cite this work as:
 Gaussian 16, Revision A.03,
 M. J. Frisch, G. W. Trucks, H. B. Schlegel, G. E. Scuseria, 
 M. A. Robb, J. R. Cheeseman, G. Scalmani, V. Barone, 
 G. A. Petersson, H. Nakatsuji, X. Li, M. Caricato, A. V. Marenich, 
 J. Bloino, B. G. Janesko, R. Gomperts, B. Mennucci, H. P. Hratchian, 
 J. V. Ortiz, A. F. Izmaylov, J. L. Sonnenberg, D. Williams-Young, 
 F. Ding, F. Lipparini, F. Egidi, J. Goings, B. Peng, A. Petrone, 
 T. Henderson, D. Ranasinghe, V. G. Zakrzewski, J. Gao, N. Rega, 
 G. Zheng, W. Liang, M. Hada, M. Ehara, K. Toyota, R. Fukuda, 
 J. Hasegawa, M. Ishida, T. Nakajima, Y. Honda, O. Kitao, H. Nakai, 
 T. Vreven, K. Throssell, J. A. Montgomery, Jr., J. E. Peralta, 
 F. Ogliaro, M. J. Bearpark, J. J. Heyd, E. N. Brothers, K. N. Kudin, 
 V. N. Staroverov, T. A. Keith, R. Kobayashi, J. Normand, 
 K. Raghavachari, A. P. Rendell, J. C. Burant, S. S. Iyengar, 
 J. Tomasi, M. Cossi, J. M. Millam, M. Klene, C. Adamo, R. Cammi, 
 J. W. Ochterski, R. L. Martin, K. Morokuma, O. Farkas, 
 J. B. Foresman, and D. J. Fox, Gaussian, Inc., Wallingford CT, 2016.
 
 ******************************************
 Gaussian 16:  ES64L-G16RevA.03 25-Dec-2016
                22-Sep-2023 
 ******************************************
 %nprocshared=4
 Will use up to    4 processors via shared memory.
 %mem=4GB
 ----------------
 # 6-31g(d) wb97x
 ----------------
 1/38=1,172=1/1;
 2/12=2,17=6,18=5,40=1/2;
 3/5=1,6=6,7=1,11=2,25=1,30=1,74=-57/1,2,3;
 4//1;
 5/5=2,38=5/2;
 6/7=2,8=2,9=2,10=2,28=1/1;
 99/5=1,9=1/99;
 --------------------
 tmpdir/M3_ref_16.gjf
 --------------------
 Symbolic Z-matrix:
 Charge =  0 Multiplicity = 1
 H                    -6.09911   9.15517   8.03799 
 C                    -5.77971   8.17021   8.39902 
 H                    -6.0478    8.10009   9.47229 
 H                    -4.68658   8.07897   8.2977 
 H                    -6.30737   7.36464   7.78417 
 
                          Input orientation:                          
 ---------------------------------------------------------------------
 Center     Atomic      Atomic             Coordinates (Angstroms)
 Number     Number       Type             X           Y           Z
 ---------------------------------------------------------------------
      1          1           0       -6.099106    9.155165    8.037987
      2          6           0       -5.779709    8.170213    8.399025
      3          1           0       -6.047804    8.100094    9.472289
      4          1           0       -4.686576    8.078965    8.297698
      5          1           0       -6.307370    7.364638    7.784166
 ---------------------------------------------------------------------
                    Distance matrix (angstroms):
                    1          2          3          4          5
     1  H    0.000000
     2  C    1.096583   0.000000
     3  H    1.781300   1.108462   0.000000
     4  H    1.794686   1.101605   1.798069   0.000000
     5  H    1.820381   1.142554   1.859578   1.844167   0.000000
 Stoichiometry    CH4
 Framework group  C1[X(CH4)]
 Deg. of freedom     9
 Full point group                 C1      NOp   1
 Largest Abelian subgroup         C1      NOp   1
 Largest concise Abelian subgroup C1      NOp   1
                         Standard orientation:                         
 ---------------------------------------------------------------------
 Center     Atomic      Atomic             Coordinates (Angstroms)
 Number     Number       Type             X           Y           Z
 ---------------------------------------------------------------------
      1          1           0        0.142116   -0.457895    0.983563
      2          6           0        0.000256    0.002382   -0.001583
      3          1           0        0.612402   -0.564723   -0.731211
      4          1           0        0.353771    1.045351    0.026301
      5          1           0       -1.109826   -0.037027   -0.269152
 ---------------------------------------------------------------------
 Rotational constants (GHZ):         156.8032480         150.7081523         148.5851497
 Standard basis: 6-31G(d) (6D, 7F)
 There are    23 symmetry adapted cartesian basis functions of A   symmetry.
 There are    23 symmetry adapted basis functions of A   symmetry.
    23 basis functions,    44 primitive gaussians,    23 cartesian basis functions
     5 alpha electrons        5 beta electrons
       nuclear repulsion energy        13.1693832961 Hartrees.
 NAtoms=    5 NActive=    5 NUniq=    5 SFac= 1.00D+00 NAtFMM=   60 NAOKFM=F Big=F
 Integral buffers will be    131072 words long.
 Raffenetti 2 integral format.
 Two-electron integral symmetry is turned on.
 One-electron integrals computed using PRISM.
 NBasis=    23 RedAO= T EigKep=  1.90D-02  NBF=    23
 NBsUse=    23 1.00D-06 EigRej= -1.00D+00 NBFU=    23
 ExpMin= 1.61D-01 ExpMax= 3.05D+03 ExpMxC= 4.57D+02 IAcc=3 IRadAn=         5 AccDes= 0.00D+00
 Harris functional with IExCor= 4538 and IRadAn=       5 diagonalized for initial guess.
 HarFok:  IExCor= 4538 AccDes= 0.00D+00 IRadAn=         5 IDoV= 1 UseB2=F ITyADJ=14
 ICtDFT=  3500011 ScaDFX=  1.000000  1.000000  1.000000  1.000000
 FoFCou: FMM=F IPFlag=           0 FMFlag=      100000 FMFlg1=           0
         NFxFlg=           0 DoJE=T BraDBF=F KetDBF=T FulRan=T
         wScrn=  0.000000 ICntrl=       500 IOpCl=  0 I1Cent=   200000004 NGrid=           0
         NMat0=    1 NMatS0=      1 NMatT0=    0 NMatD0=    1 NMtDS0=    0 NMtDT0=    0
 Petite list used in FoFCou.
 Keep R1 ints in memory in canonical form, NReq=3524626.
 Requested convergence on RMS density matrix=1.00D-08 within 128 cycles.
 Requested convergence on MAX density matrix=1.00D-06.
 Requested convergence on             energy=1.00D-06.
 No special actions if energy rises.
 Integral accuracy reduced to 1.0D-05 until final iterations.
 Initial convergence to 1.0D-05 achieved.  Increase integral accuracy.
 SCF Done:  E(RwB97X) =  -40.4976910640     A.U. after   11 cycles
            NFock= 11  Conv=0.18D-08     -V/T= 2.0134

 **********************************************************************

            Population analysis using the SCF density.

 **********************************************************************

 Orbital symmetries:
       Occupied  (A) (A) (A) (A) (A)
       Virtual   (A) (A) (A) (A) (A) (A) (A) (A) (A) (A) (A) (A)
                 (A) (A) (A) (A) (A) (A)
 The electronic state is 1-A.
 Alpha  occ. eigenvalues --  -10.25716  -0.81229  -0.49478  -0.49207  -0.48775
 Alpha virt. eigenvalues --    0.21083   0.26422   0.27061   0.27403   0.64013
 Alpha virt. eigenvalues --    0.64270   0.65604   0.98792   1.00673   1.01368
 Alpha virt. eigenvalues --    1.04984   1.20199   1.76023   1.76274   2.29825
 Alpha virt. eigenvalues --    2.34228   2.35244   4.29428
          Condensed to atoms (all electrons):
               1          2          3          4          5
     1  H    0.523162   0.383695  -0.026192  -0.024339  -0.024083
     2  C    0.383695   5.128235   0.382971   0.383914   0.379857
     3  H   -0.026192   0.382971   0.523563  -0.024961  -0.020808
     4  H   -0.024339   0.383914  -0.024961   0.519951  -0.022189
     5  H   -0.024083   0.379857  -0.020808  -0.022189   0.529359
 Mulliken charges:
               1
     1  H    0.167756
     2  C   -0.658672
     3  H    0.165428
     4  H    0.167624
     5  H    0.157864
 Sum of Mulliken charges =   0.00000
 Mulliken charges with hydrogens summed into heavy atoms:
               1
     2  C    0.000000
 Electronic spatial extent (au):  <R**2>=             36.1925
 Charge=              0.0000 electrons
 Dipole moment (field-independent basis, Debye):
    X=              0.0374    Y=             -0.0062    Z=              0.0265  Tot=              0.0463
 Quadrupole moment (field-independent basis, Debye-Ang):
   XX=             -8.2123   YY=             -8.3061   ZZ=             -8.3856
   XY=              0.0027   XZ=             -0.0154   YZ=             -0.0092
 Traceless Quadrupole moment (field-independent basis, Debye-Ang):
   XX=              0.0890   YY=             -0.0047   ZZ=             -0.0843
   XY=              0.0027   XZ=             -0.0154   YZ=             -0.0092
 Octapole moment (field-independent basis, Debye-Ang**2):
  XXX=             -0.6857  YYY=              0.6443  ZZZ=              0.4810  XYY=              0.5168
  XXY=             -0.1066  XXZ=             -0.4084  XZZ=              0.3366  YZZ=             -0.5440
  YYZ=              0.0326  XYZ=              0.1407
 Hexadecapole moment (field-independent basis, Debye-Ang**3):
 XXXX=            -15.6250 YYYY=            -15.2243 ZZZZ=            -15.2574 XXXY=             -0.0335
 XXXZ=              0.1935 YYYX=              0.3225 YYYZ=              0.0550 ZZZX=             -0.1265
 ZZZY=             -0.2638 XXYY=             -5.4126 XXZZ=             -5.3460 YYZZ=             -5.1396
 XXYZ=              0.1769 YYXZ=             -0.1277 ZZXY=             -0.2744
 N-N= 1.316938329608D+01 E-N=-1.192769147812D+02  KE= 3.996202498090D+01
 1\1\GINC-NODE86\SP\RwB97X\6-31G(d)\C1H4\YANZ\22-Sep-2023\0\\# 6-31g(d)
  wb97x\\tmpdir/M3_ref_16.gjf\\0,1\H,0,-6.099106,9.155165,8.037987\C,0,
 -5.779709,8.170213,8.399025\H,0,-6.047804,8.100094,9.472289\H,0,-4.686
 57599,8.078965,8.29769761\H,0,-6.30736997,7.36463819,7.78416554\\Versi
 on=ES64L-G16RevA.03\State=1-A\HF=-40.4976911\RMSD=1.771e-09\Dipole=0.0
 04555,0.0169531,0.0048388\Quadrupole=0.0104506,-0.0262761,0.0158255,0.
 0069417,0.0306338,0.0532104\PG=C01 [X(C1H4)]\\@


 QED = W**5 (WHICH WAS WHAT WE WANTED)
 Job cpu time:       0 days  0 hours  0 minutes  8.0 seconds.
 Elapsed time:       0 days  0 hours  0 minutes  2.3 seconds.
 File lengths (MBytes):  RWF=      6 Int=      0 D2E=      0 Chk=      1 Scr=      1
 Normal termination of Gaussian 16 at Fri Sep 22 11:08:36 2023.
