 Entering Gaussian System, Link 0=g16
 Initial command:
 /share/apps/gaussian/g16/l1.exe "/tmp/55478.mgr/Gau-302138.inp" -scrdir="/tmp/55478.mgr/"
 Entering Link 1 = /share/apps/gaussian/g16/l1.exe PID=    302139.
  
 Copyright (c) 1988,1990,1992,1993,1995,1998,2003,2009,2016,
            Gaussian, Inc.  All Rights Reserved.
  
 This is part of the Gaussian(R) 16 program.  It is based on
 the Gaussian(R) 09 system (copyright 2009, Gaussian, Inc.),
 the Gaussian(R) 03 system (copyright 2003, Gaussian, Inc.),
 the Gaussian(R) 98 system (copyright 1998, Gaussian, Inc.),
 the Gaussian(R) 94 system (copyright 1995, Gaussian, Inc.),
 the Gaussian 92(TM) system (copyright 1992, Gaussian, Inc.),
 the Gaussian 90(TM) system (copyright 1990, Gaussian, Inc.),
 the Gaussian 88(TM) system (copyright 1988, Gaussian, Inc.),
 the Gaussian 86(TM) system (copyright 1986, Carnegie Mellon
 University), and the Gaussian 82(TM) system (copyright 1983,
 Carnegie Mellon University). Gaussian is a federally registered
 trademark of Gaussian, Inc.
  
 This software contains proprietary and confidential information,
 including trade secrets, belonging to Gaussian, Inc.
  
 This software is provided under written license and may be
 used, copied, transmitted, or stored only in accord with that
 written license.
  
 The following legend is applicable only to US Government
 contracts under FAR:
  
                    RESTRICTED RIGHTS LEGEND
  
 Use, reproduction and disclosure by the US Government is
 subject to restrictions as set forth in subparagraphs (a)
 and (c) of the Commercial Computer Software - Restricted
 Rights clause in FAR 52.227-19.
  
 Gaussian, Inc.
 340 Quinnipiac St., Bldg. 40, Wallingford CT 06492
  
  
 ---------------------------------------------------------------
 Warning -- This program may not be used in any manner that
 competes with the business of Gaussian, Inc. or will provide
 assistance to any competitor of Gaussian, Inc.  The licensee
 of this program is prohibited from giving any competitor of
 Gaussian, Inc. access to this program.  By using this program,
 the user acknowledges that Gaussian, Inc. is engaged in the
 business of creating and licensing software in the field of
 computational chemistry and represents and warrants to the
 licensee that it is not a competitor of Gaussian, Inc. and that
 it will not use this program in any manner prohibited above.
 ---------------------------------------------------------------
  

 Cite this work as:
 Gaussian 16, Revision A.03,
 M. J. Frisch, G. W. Trucks, H. B. Schlegel, G. E. Scuseria, 
 M. A. Robb, J. R. Cheeseman, G. Scalmani, V. Barone, 
 G. A. Petersson, H. Nakatsuji, X. Li, M. Caricato, A. V. Marenich, 
 J. Bloino, B. G. Janesko, R. Gomperts, B. Mennucci, H. P. Hratchian, 
 J. V. Ortiz, A. F. Izmaylov, J. L. Sonnenberg, D. Williams-Young, 
 F. Ding, F. Lipparini, F. Egidi, J. Goings, B. Peng, A. Petrone, 
 T. Henderson, D. Ranasinghe, V. G. Zakrzewski, J. Gao, N. Rega, 
 G. Zheng, W. Liang, M. Hada, M. Ehara, K. Toyota, R. Fukuda, 
 J. Hasegawa, M. Ishida, T. Nakajima, Y. Honda, O. Kitao, H. Nakai, 
 T. Vreven, K. Throssell, J. A. Montgomery, Jr., J. E. Peralta, 
 F. Ogliaro, M. J. Bearpark, J. J. Heyd, E. N. Brothers, K. N. Kudin, 
 V. N. Staroverov, T. A. Keith, R. Kobayashi, J. Normand, 
 K. Raghavachari, A. P. Rendell, J. C. Burant, S. S. Iyengar, 
 J. Tomasi, M. Cossi, J. M. Millam, M. Klene, C. Adamo, R. Cammi, 
 J. W. Ochterski, R. L. Martin, K. Morokuma, O. Farkas, 
 J. B. Foresman, and D. J. Fox, Gaussian, Inc., Wallingford CT, 2016.
 
 ******************************************
 Gaussian 16:  ES64L-G16RevA.03 25-Dec-2016
                22-Sep-2023 
 ******************************************
 %nprocshared=4
 Will use up to    4 processors via shared memory.
 %mem=4GB
 ----------------
 # 6-31g(d) wb97x
 ----------------
 1/38=1,172=1/1;
 2/12=2,17=6,18=5,40=1/2;
 3/5=1,6=6,7=1,11=2,25=1,30=1,74=-57/1,2,3;
 4//1;
 5/5=2,38=5/2;
 6/7=2,8=2,9=2,10=2,28=1/1;
 99/5=1,9=1/99;
 --------------------
 tmpdir/M3_ref_68.gjf
 --------------------
 Symbolic Z-matrix:
 Charge =  0 Multiplicity = 1
 C                    -0.87166   3.18958   10.82761 
 C                    -0.268     2.01851   11.5502 
 N                    -1.13954   1.31644   12.33993 
 C                    -1.9838    3.89481   11.29402 
 C                    -0.25734   3.59727   9.64421 
 C                    -2.47813   4.97969   10.58063 
 H                    -2.4501    3.62849   12.24066 
 C                    -0.76388   4.67246   8.92584 
 H                     0.6155    3.05146   9.29743 
 C                    -1.87581   5.37814   9.38629 
 H                    -3.34291   5.53224   10.93853 
 H                    -0.28814   4.96982   7.99315 
 O                     0.91103   1.73044   11.41043 
 H                    -2.11734   1.53477   12.22002 
 H                    -0.95784   0.50771   12.88183 
 H                    -2.24637   6.2555    8.84298 
 
                          Input orientation:                          
 ---------------------------------------------------------------------
 Center     Atomic      Atomic             Coordinates (Angstroms)
 Number     Number       Type             X           Y           Z
 ---------------------------------------------------------------------
      1          6           0       -0.871664    3.189582   10.827610
      2          6           0       -0.268001    2.018513   11.550203
      3          7           0       -1.139544    1.316440   12.339927
      4          6           0       -1.983801    3.894813   11.294024
      5          6           0       -0.257341    3.597273    9.644210
      6          6           0       -2.478125    4.979687   10.580633
      7          1           0       -2.450104    3.628494   12.240661
      8          6           0       -0.763877    4.672461    8.925844
      9          1           0        0.615499    3.051459    9.297431
     10          6           0       -1.875808    5.378142    9.386288
     11          1           0       -3.342912    5.532237   10.938530
     12          1           0       -0.288137    4.969819    7.993150
     13          8           0        0.911032    1.730440   11.410427
     14          1           0       -2.117339    1.534774   12.220024
     15          1           0       -0.957841    0.507708   12.881830
     16          1           0       -2.246369    6.255502    8.842984
 ---------------------------------------------------------------------
                    Distance matrix (angstroms):
                    1          2          3          4          5
     1  C    0.000000
     2  C    1.502648   0.000000
     3  N    2.422297   1.369729   0.000000
     4  C    1.397047   2.555406   2.907695   0.000000
     5  C    1.394288   2.474956   3.639694   2.406466   0.000000
     6  C    2.417890   3.820113   4.278585   1.389329   2.778460
     7  H    2.163523   2.798275   2.659514   1.088341   3.398638
     8  C    2.413972   3.765182   4.802079   2.775109   1.388761
     9  H    2.138266   2.631070   3.917556   3.384374   1.086286
    10  C    2.806334   4.307514   5.075775   2.418963   2.420218
    11  H    3.406964   4.709085   4.959001   2.157479   3.865242
    12  H    3.397633   4.622038   5.741650   3.863507   2.147284
    13  O    2.376295   1.221737   2.289154   3.616368   2.823063
    14  H    2.495779   2.025516   1.009024   2.538719   3.787917
    15  H    3.379304   2.128765   0.990314   3.878944   4.529713
    16  H    3.902361   5.403244   6.152073   3.413120   3.415315
                    6          7          8          9         10
     6  C    0.000000
     7  H    2.140608   0.000000
     8  C    2.402366   3.862802   0.000000
     9  H    3.864606   4.288764   2.160649   0.000000
    10  C    1.395712   3.396841   1.395129   3.409979   0.000000
    11  H    1.086857   2.473234   3.382535   4.951412   2.141400
    12  H    3.389869   4.951222   1.088425   2.489541   2.151339
    13  O    4.767866   3.948308   4.199281   2.509419   5.016906
    14  H    3.832127   2.120099   4.746426   4.279052   4.781200
    15  H    5.254081   3.518132   5.747401   4.668403   6.064867
    16  H    2.168142   4.299638   2.170407   4.320035   1.096474
                   11         12         13         14         15
    11  H    0.000000
    12  H    4.280564   0.000000
    13  O    5.724717   4.858947   0.000000
    14  H    4.373096   5.745605   3.140822   0.000000
    15  H    5.891593   6.652679   2.674469   1.684425   0.000000
    16  H    2.473223   2.491961   6.085814   5.805714   7.142109
                   16
    16  H    0.000000
 Stoichiometry    C7H7NO
 Framework group  C1[X(C7H7NO)]
 Deg. of freedom    42
 Full point group                 C1      NOp   1
 Largest Abelian subgroup         C1      NOp   1
 Largest concise Abelian subgroup C1      NOp   1
                         Standard orientation:                         
 ---------------------------------------------------------------------
 Center     Atomic      Atomic             Coordinates (Angstroms)
 Number     Number       Type             X           Y           Z
 ---------------------------------------------------------------------
      1          6           0        0.229313   -0.021651   -0.022272
      2          6           0        1.727177   -0.137959   -0.051067
      3          7           0        2.400905    0.993358    0.326251
      4          6           0       -0.454704    1.185309   -0.186918
      5          6           0       -0.500675   -1.196927    0.150598
      6          6           0       -1.843554    1.214836   -0.165492
      7          1           0        0.090341    2.108516   -0.374272
      8          6           0       -1.888494   -1.161091    0.187086
      9          1           0        0.040068   -2.132299    0.263268
     10          6           0       -2.575884    0.042174    0.025733
     11          1           0       -2.381201    2.150733   -0.293128
     12          1           0       -2.447710   -2.081900    0.342185
     13          8           0        2.272849   -1.181741   -0.375727
     14          1           0        1.842729    1.717472    0.753133
     15          1           0        3.379591    1.127100    0.397035
     16          1           0       -3.672020    0.062662    0.007838
 ---------------------------------------------------------------------
 Rotational constants (GHZ):           3.8048434           1.2172131           0.9440662
 Standard basis: 6-31G(d) (6D, 7F)
 There are   149 symmetry adapted cartesian basis functions of A   symmetry.
 There are   149 symmetry adapted basis functions of A   symmetry.
   149 basis functions,   280 primitive gaussians,   149 cartesian basis functions
    32 alpha electrons       32 beta electrons
       nuclear repulsion energy       405.0094849767 Hartrees.
 NAtoms=   16 NActive=   16 NUniq=   16 SFac= 1.00D+00 NAtFMM=   60 NAOKFM=F Big=F
 Integral buffers will be    131072 words long.
 Raffenetti 2 integral format.
 Two-electron integral symmetry is turned on.
 One-electron integrals computed using PRISM.
 NBasis=   149 RedAO= T EigKep=  4.63D-04  NBF=   149
 NBsUse=   149 1.00D-06 EigRej= -1.00D+00 NBFU=   149
 ExpMin= 1.61D-01 ExpMax= 5.48D+03 ExpMxC= 8.25D+02 IAcc=3 IRadAn=         5 AccDes= 0.00D+00
 Harris functional with IExCor= 4538 and IRadAn=       5 diagonalized for initial guess.
 HarFok:  IExCor= 4538 AccDes= 0.00D+00 IRadAn=         5 IDoV= 1 UseB2=F ITyADJ=14
 ICtDFT=  3500011 ScaDFX=  1.000000  1.000000  1.000000  1.000000
 FoFCou: FMM=F IPFlag=           0 FMFlag=      100000 FMFlg1=           0
         NFxFlg=           0 DoJE=T BraDBF=F KetDBF=T FulRan=T
         wScrn=  0.000000 ICntrl=       500 IOpCl=  0 I1Cent=   200000004 NGrid=           0
         NMat0=    1 NMatS0=      1 NMatT0=    0 NMatD0=    1 NMtDS0=    0 NMtDT0=    0
 Petite list used in FoFCou.
 Keep R1 ints in memory in canonical form, NReq=128793757.
 Requested convergence on RMS density matrix=1.00D-08 within 128 cycles.
 Requested convergence on MAX density matrix=1.00D-06.
 Requested convergence on             energy=1.00D-06.
 No special actions if energy rises.
 Integral accuracy reduced to 1.0D-05 until final iterations.
 Initial convergence to 1.0D-05 achieved.  Increase integral accuracy.
 SCF Done:  E(RwB97X) =  -400.841572915     A.U. after   15 cycles
            NFock= 15  Conv=0.79D-08     -V/T= 2.0094

 **********************************************************************

            Population analysis using the SCF density.

 **********************************************************************

 Orbital symmetries:
       Occupied  (A) (A) (A) (A) (A) (A) (A) (A) (A) (A) (A) (A)
                 (A) (A) (A) (A) (A) (A) (A) (A) (A) (A) (A) (A)
                 (A) (A) (A) (A) (A) (A) (A) (A)
       Virtual   (A) (A) (A) (A) (A) (A) (A) (A) (A) (A) (A) (A)
                 (A) (A) (A) (A) (A) (A) (A) (A) (A) (A) (A) (A)
                 (A) (A) (A) (A) (A) (A) (A) (A) (A) (A) (A) (A)
                 (A) (A) (A) (A) (A) (A) (A) (A) (A) (A) (A) (A)
                 (A) (A) (A) (A) (A) (A) (A) (A) (A) (A) (A) (A)
                 (A) (A) (A) (A) (A) (A) (A) (A) (A) (A) (A) (A)
                 (A) (A) (A) (A) (A) (A) (A) (A) (A) (A) (A) (A)
                 (A) (A) (A) (A) (A) (A) (A) (A) (A) (A) (A) (A)
                 (A) (A) (A) (A) (A) (A) (A) (A) (A) (A) (A) (A)
                 (A) (A) (A) (A) (A) (A) (A) (A) (A)
 The electronic state is 1-A.
 Alpha  occ. eigenvalues --  -19.17642 -14.43294 -10.37759 -10.28833 -10.28753
 Alpha  occ. eigenvalues --  -10.28555 -10.28343 -10.28055 -10.27869  -1.15587
 Alpha  occ. eigenvalues --   -1.03524  -0.99481  -0.89148  -0.88183  -0.76782
 Alpha  occ. eigenvalues --   -0.73338  -0.69966  -0.66162  -0.62704  -0.59254
 Alpha  occ. eigenvalues --   -0.56641  -0.54806  -0.53405  -0.52103  -0.51357
 Alpha  occ. eigenvalues --   -0.47728  -0.46204  -0.44610  -0.36962  -0.35782
 Alpha  occ. eigenvalues --   -0.35088  -0.34118
 Alpha virt. eigenvalues --    0.04931   0.07624   0.15959   0.17293   0.19948
 Alpha virt. eigenvalues --    0.22495   0.24937   0.25581   0.27380   0.28766
 Alpha virt. eigenvalues --    0.29249   0.35527   0.39011   0.39642   0.40259
 Alpha virt. eigenvalues --    0.41857   0.45637   0.50976   0.57782   0.62203
 Alpha virt. eigenvalues --    0.64162   0.64842   0.66650   0.67678   0.68752
 Alpha virt. eigenvalues --    0.69634   0.70570   0.71241   0.72131   0.73472
 Alpha virt. eigenvalues --    0.74493   0.75357   0.79669   0.81131   0.81640
 Alpha virt. eigenvalues --    0.85372   0.86741   0.89993   0.93517   0.94879
 Alpha virt. eigenvalues --    0.95501   0.96475   1.00161   1.01335   1.03096
 Alpha virt. eigenvalues --    1.04533   1.05658   1.09597   1.10565   1.10758
 Alpha virt. eigenvalues --    1.18131   1.19015   1.21682   1.25175   1.27531
 Alpha virt. eigenvalues --    1.29400   1.33896   1.35216   1.42935   1.44231
 Alpha virt. eigenvalues --    1.51677   1.52195   1.53239   1.57001   1.58345
 Alpha virt. eigenvalues --    1.59407   1.59860   1.61363   1.75837   1.78818
 Alpha virt. eigenvalues --    1.87361   1.87480   1.90662   1.95559   1.98103
 Alpha virt. eigenvalues --    1.99893   2.02747   2.03047   2.08421   2.12366
 Alpha virt. eigenvalues --    2.14718   2.16350   2.23236   2.24291   2.24787
 Alpha virt. eigenvalues --    2.26162   2.29460   2.34891   2.37727   2.40102
 Alpha virt. eigenvalues --    2.41349   2.48985   2.53522   2.62322   2.67943
 Alpha virt. eigenvalues --    2.70879   2.72562   2.75262   2.76854   2.81703
 Alpha virt. eigenvalues --    2.85854   2.86253   2.90369   2.99378   3.09958
 Alpha virt. eigenvalues --    3.20324   3.27262   3.53757   3.93816   4.16028
 Alpha virt. eigenvalues --    4.21296   4.23818   4.27520   4.44907   4.46686
 Alpha virt. eigenvalues --    4.61654   4.83308
          Condensed to atoms (all electrons):
               1          2          3          4          5          6
     1  C    5.030669   0.295526  -0.125176   0.522840   0.529874  -0.028785
     2  C    0.295526   4.317568   0.273357  -0.039282  -0.027758   0.002771
     3  N   -0.125176   0.273357   7.114627  -0.005487   0.005917   0.000284
     4  C    0.522840  -0.039282  -0.005487   4.972828  -0.057054   0.540764
     5  C    0.529874  -0.027758   0.005917  -0.057054   4.930843  -0.036023
     6  C   -0.028785   0.002771   0.000284   0.540764  -0.036023   4.853879
     7  H   -0.042228  -0.005934   0.005579   0.361502   0.004636  -0.030770
     8  C   -0.033070   0.006285  -0.000075  -0.038676   0.513309  -0.035750
     9  H   -0.039285  -0.005062   0.000481   0.004588   0.370672   0.000174
    10  C   -0.032059   0.000035  -0.000010  -0.042345  -0.037726   0.558780
    11  H    0.002951  -0.000083   0.000003  -0.033798   0.000521   0.371895
    12  H    0.003188  -0.000102   0.000001   0.000540  -0.033566   0.003798
    13  O   -0.105536   0.648528  -0.098200   0.002072   0.006247  -0.000052
    14  H    0.000681  -0.016467   0.304554   0.007465  -0.000556  -0.000032
    15  H    0.005824  -0.005209   0.313048  -0.000076  -0.000121   0.000004
    16  H    0.000368   0.000004  -0.000000   0.003779   0.003284  -0.035374
               7          8          9         10         11         12
     1  C   -0.042228  -0.033070  -0.039285  -0.032059   0.002951   0.003188
     2  C   -0.005934   0.006285  -0.005062   0.000035  -0.000083  -0.000102
     3  N    0.005579  -0.000075   0.000481  -0.000010   0.000003   0.000001
     4  C    0.361502  -0.038676   0.004588  -0.042345  -0.033798   0.000540
     5  C    0.004636   0.513309   0.370672  -0.037726   0.000521  -0.033566
     6  C   -0.030770  -0.035750   0.000174   0.558780   0.371895   0.003798
     7  H    0.544743   0.000203  -0.000117   0.003685  -0.003928   0.000012
     8  C    0.000203   4.899253  -0.035264   0.548272   0.003812   0.372438
     9  H   -0.000117  -0.035264   0.497224   0.003484   0.000011  -0.003603
    10  C    0.003685   0.548272   0.003484   4.852070  -0.036649  -0.037736
    11  H   -0.003928   0.003812   0.000011  -0.036649   0.534315  -0.000141
    12  H    0.000012   0.372438  -0.003603  -0.037736  -0.000141   0.531056
    13  O   -0.000054   0.000990   0.011129  -0.000015   0.000000   0.000000
    14  H    0.003113  -0.000034  -0.000040   0.000005  -0.000004   0.000000
    15  H   -0.000082   0.000001  -0.000009   0.000000  -0.000000  -0.000000
    16  H   -0.000128  -0.034784  -0.000107   0.371888  -0.003712  -0.003592
              13         14         15         16
     1  C   -0.105536   0.000681   0.005824   0.000368
     2  C    0.648528  -0.016467  -0.005209   0.000004
     3  N   -0.098200   0.304554   0.313048  -0.000000
     4  C    0.002072   0.007465  -0.000076   0.003779
     5  C    0.006247  -0.000556  -0.000121   0.003284
     6  C   -0.000052  -0.000032   0.000004  -0.035374
     7  H   -0.000054   0.003113  -0.000082  -0.000128
     8  C    0.000990  -0.000034   0.000001  -0.034784
     9  H    0.011129  -0.000040  -0.000009  -0.000107
    10  C   -0.000015   0.000005   0.000000   0.371888
    11  H    0.000000  -0.000004  -0.000000  -0.003712
    12  H    0.000000   0.000000  -0.000000  -0.003592
    13  O    8.019565   0.002981   0.002923  -0.000000
    14  H    0.002981   0.373745  -0.021177  -0.000000
    15  H    0.002923  -0.021177   0.342362   0.000000
    16  H   -0.000000  -0.000000   0.000000   0.528911
 Mulliken charges:
               1
     1  C    0.014218
     2  C    0.555823
     3  N   -0.788902
     4  C   -0.199660
     5  C   -0.172498
     6  C   -0.165562
     7  H    0.159768
     8  C   -0.166910
     9  H    0.195724
    10  C   -0.151680
    11  H    0.164806
    12  H    0.167706
    13  O   -0.490578
    14  H    0.345767
    15  H    0.362513
    16  H    0.169464
 Sum of Mulliken charges =  -0.00000
 Mulliken charges with hydrogens summed into heavy atoms:
               1
     1  C    0.014218
     2  C    0.555823
     3  N   -0.080622
     4  C   -0.039892
     5  C    0.023226
     6  C   -0.000755
     8  C    0.000797
    10  C    0.017784
    13  O   -0.490578
 Electronic spatial extent (au):  <R**2>=           1189.5561
 Charge=              0.0000 electrons
 Dipole moment (field-independent basis, Debye):
    X=             -1.3767    Y=              3.1827    Z=              1.4216  Tot=              3.7477
 Quadrupole moment (field-independent basis, Debye-Ang):
   XX=            -46.2679   YY=            -47.2317   ZZ=            -54.4026
   XY=              8.8807   XZ=              3.5102   YZ=             -0.5069
 Traceless Quadrupole moment (field-independent basis, Debye-Ang):
   XX=              3.0328   YY=              2.0691   ZZ=             -5.1019
   XY=              8.8807   XZ=              3.5102   YZ=             -0.5069
 Octapole moment (field-independent basis, Debye-Ang**2):
  XXX=              9.3523  YYY=              6.4321  ZZZ=             -0.2829  XYY=             -1.2719
  XXY=             23.8823  XXZ=              9.1927  XZZ=              8.8064  YZZ=              0.4816
  YYZ=              4.8486  XYZ=              2.9833
 Hexadecapole moment (field-independent basis, Debye-Ang**3):
 XXXX=           -930.2984 YYYY=           -357.6184 ZZZZ=            -70.2183 XXXY=             71.7254
 XXXZ=             26.9460 YYYX=             17.9288 YYYZ=              0.7677 ZZZX=             -0.4557
 ZZZY=              4.4407 XXYY=           -230.6415 XXZZ=           -202.8843 YYZZ=            -78.7100
 XXYZ=              1.6694 YYXZ=             10.4334 ZZXY=              1.6900
 N-N= 4.050094849767D+02 E-N=-1.742380781928D+03  KE= 3.971019195887D+02
 1\1\GINC-NODE86\SP\RwB97X\6-31G(d)\C7H7N1O1\YANZ\22-Sep-2023\0\\# 6-31
 g(d) wb97x\\tmpdir/M3_ref_68.gjf\\0,1\C,0,-0.871664,3.189582,10.82761\
 C,0,-0.268001,2.018513,11.550203\N,0,-1.139544,1.31644,12.339927\C,0,-
 1.983801,3.894813,11.294024\C,0,-0.257341,3.597273,9.64421\C,0,-2.4781
 25,4.979687,10.580633\H,0,-2.450104,3.628494,12.240661\C,0,-0.763877,4
 .672461,8.925844\H,0,0.615499,3.051459,9.297431\C,0,-1.875808,5.378142
 ,9.386288\H,0,-3.342912,5.532237,10.93853\H,0,-0.288137,4.969819,7.993
 15\O,0,0.911032,1.73044,11.410427\H,0,-2.117339,1.534774,12.220024\H,0
 ,-0.95784075,0.5077077,12.88182987\H,0,-2.24636886,6.25550197,8.842984
 05\\Version=ES64L-G16RevA.03\State=1-A\HF=-400.8415729\RMSD=7.891e-09\
 Dipole=-1.461514,0.1525499,0.1215971\Quadrupole=-4.3707539,1.9778428,2
 .3929111,2.8074135,-4.2199689,-4.6266008\PG=C01 [X(C7H7N1O1)]\\@


 A DANDELION FROM A LOVER MEANS MORE THAN AN ORCHID FROM A FRIEND.
 Job cpu time:       0 days  0 hours  1 minutes 34.9 seconds.
 Elapsed time:       0 days  0 hours  0 minutes 25.1 seconds.
 File lengths (MBytes):  RWF=     15 Int=      0 D2E=      0 Chk=      2 Scr=      1
 Normal termination of Gaussian 16 at Fri Sep 22 11:09:30 2023.
