 Entering Gaussian System, Link 0=g16
 Initial command:
 /share/apps/gaussian/g16/l1.exe "/tmp/55478.mgr/Gau-301528.inp" -scrdir="/tmp/55478.mgr/"
 Entering Link 1 = /share/apps/gaussian/g16/l1.exe PID=    301529.
  
 Copyright (c) 1988,1990,1992,1993,1995,1998,2003,2009,2016,
            Gaussian, Inc.  All Rights Reserved.
  
 This is part of the Gaussian(R) 16 program.  It is based on
 the Gaussian(R) 09 system (copyright 2009, Gaussian, Inc.),
 the Gaussian(R) 03 system (copyright 2003, Gaussian, Inc.),
 the Gaussian(R) 98 system (copyright 1998, Gaussian, Inc.),
 the Gaussian(R) 94 system (copyright 1995, Gaussian, Inc.),
 the Gaussian 92(TM) system (copyright 1992, Gaussian, Inc.),
 the Gaussian 90(TM) system (copyright 1990, Gaussian, Inc.),
 the Gaussian 88(TM) system (copyright 1988, Gaussian, Inc.),
 the Gaussian 86(TM) system (copyright 1986, Carnegie Mellon
 University), and the Gaussian 82(TM) system (copyright 1983,
 Carnegie Mellon University). Gaussian is a federally registered
 trademark of Gaussian, Inc.
  
 This software contains proprietary and confidential information,
 including trade secrets, belonging to Gaussian, Inc.
  
 This software is provided under written license and may be
 used, copied, transmitted, or stored only in accord with that
 written license.
  
 The following legend is applicable only to US Government
 contracts under FAR:
  
                    RESTRICTED RIGHTS LEGEND
  
 Use, reproduction and disclosure by the US Government is
 subject to restrictions as set forth in subparagraphs (a)
 and (c) of the Commercial Computer Software - Restricted
 Rights clause in FAR 52.227-19.
  
 Gaussian, Inc.
 340 Quinnipiac St., Bldg. 40, Wallingford CT 06492
  
  
 ---------------------------------------------------------------
 Warning -- This program may not be used in any manner that
 competes with the business of Gaussian, Inc. or will provide
 assistance to any competitor of Gaussian, Inc.  The licensee
 of this program is prohibited from giving any competitor of
 Gaussian, Inc. access to this program.  By using this program,
 the user acknowledges that Gaussian, Inc. is engaged in the
 business of creating and licensing software in the field of
 computational chemistry and represents and warrants to the
 licensee that it is not a competitor of Gaussian, Inc. and that
 it will not use this program in any manner prohibited above.
 ---------------------------------------------------------------
  

 Cite this work as:
 Gaussian 16, Revision A.03,
 M. J. Frisch, G. W. Trucks, H. B. Schlegel, G. E. Scuseria, 
 M. A. Robb, J. R. Cheeseman, G. Scalmani, V. Barone, 
 G. A. Petersson, H. Nakatsuji, X. Li, M. Caricato, A. V. Marenich, 
 J. Bloino, B. G. Janesko, R. Gomperts, B. Mennucci, H. P. Hratchian, 
 J. V. Ortiz, A. F. Izmaylov, J. L. Sonnenberg, D. Williams-Young, 
 F. Ding, F. Lipparini, F. Egidi, J. Goings, B. Peng, A. Petrone, 
 T. Henderson, D. Ranasinghe, V. G. Zakrzewski, J. Gao, N. Rega, 
 G. Zheng, W. Liang, M. Hada, M. Ehara, K. Toyota, R. Fukuda, 
 J. Hasegawa, M. Ishida, T. Nakajima, Y. Honda, O. Kitao, H. Nakai, 
 T. Vreven, K. Throssell, J. A. Montgomery, Jr., J. E. Peralta, 
 F. Ogliaro, M. J. Bearpark, J. J. Heyd, E. N. Brothers, K. N. Kudin, 
 V. N. Staroverov, T. A. Keith, R. Kobayashi, J. Normand, 
 K. Raghavachari, A. P. Rendell, J. C. Burant, S. S. Iyengar, 
 J. Tomasi, M. Cossi, J. M. Millam, M. Klene, C. Adamo, R. Cammi, 
 J. W. Ochterski, R. L. Martin, K. Morokuma, O. Farkas, 
 J. B. Foresman, and D. J. Fox, Gaussian, Inc., Wallingford CT, 2016.
 
 ******************************************
 Gaussian 16:  ES64L-G16RevA.03 25-Dec-2016
                22-Sep-2023 
 ******************************************
 %nprocshared=4
 Will use up to    4 processors via shared memory.
 %mem=4GB
 ----------------
 # 6-31g(d) wb97x
 ----------------
 1/38=1,172=1/1;
 2/12=2,17=6,18=5,40=1/2;
 3/5=1,6=6,7=1,11=2,25=1,30=1,74=-57/1,2,3;
 4//1;
 5/5=2,38=5/2;
 6/7=2,8=2,9=2,10=2,28=1/1;
 99/5=1,9=1/99;
 --------------------
 tmpdir/M3_ref_38.gjf
 --------------------
 Symbolic Z-matrix:
 Charge =  0 Multiplicity = 1
 N                    -6.45102   7.14532   7.61677 
 C                    -6.01244   5.82644   8.04295 
 C                    -4.50317   5.69639   7.90467 
 H                    -5.98098   7.86294   8.1645 
 H                    -7.45908   7.23726   7.67266 
 H                    -6.50293   5.07232   7.41594 
 H                    -6.29645   5.62671   9.09586 
 H                    -4.18464   4.71112   8.2622 
 H                    -4.22933   5.77522   6.83472 
 H                    -3.97559   6.50417   8.52289 
 
                          Input orientation:                          
 ---------------------------------------------------------------------
 Center     Atomic      Atomic             Coordinates (Angstroms)
 Number     Number       Type             X           Y           Z
 ---------------------------------------------------------------------
      1          7           0       -6.451024    7.145323    7.616772
      2          6           0       -6.012439    5.826435    8.042950
      3          6           0       -4.503170    5.696389    7.904672
      4          1           0       -5.980977    7.862940    8.164497
      5          1           0       -7.459084    7.237259    7.672663
      6          1           0       -6.502930    5.072316    7.415941
      7          1           0       -6.296451    5.626708    9.095864
      8          1           0       -4.184637    4.711122    8.262198
      9          1           0       -4.229328    5.775223    6.834721
     10          1           0       -3.975593    6.504170    8.522886
 ---------------------------------------------------------------------
                    Distance matrix (angstroms):
                    1          2          3          4          5
     1  N    0.000000
     2  C    1.453771   0.000000
     3  C    2.444674   1.521159   0.000000
     4  H    1.017802   2.040371   2.635406   0.000000
     5  H    1.013785   2.054341   3.341487   1.678743   0.000000
     6  H    2.083359   1.096548   2.151131   2.936044   2.380570
     7  H    2.125511   1.108685   2.153985   2.442888   2.443581
     8  H    3.387982   2.152406   1.095463   3.629096   4.177430
     9  H    2.724832   2.154513   1.107249   3.032349   3.642941
    10  H    2.712909   2.199637   1.145878   2.448726   3.659919
                    6          7          8          9         10
     6  H    0.000000
     7  H    1.781046   0.000000
     8  H    2.494212   2.448072   0.000000
     9  H    2.449727   3.067217   1.781011   0.000000
    10  H    3.108531   2.546493   1.823919   1.856245   0.000000
 Stoichiometry    C2H7N
 Framework group  C1[X(C2H7N)]
 Deg. of freedom    24
 Full point group                 C1      NOp   1
 Largest Abelian subgroup         C1      NOp   1
 Largest concise Abelian subgroup C1      NOp   1
                         Standard orientation:                         
 ---------------------------------------------------------------------
 Center     Atomic      Atomic             Coordinates (Angstroms)
 Number     Number       Type             X           Y           Z
 ---------------------------------------------------------------------
      1          7           0        1.201296   -0.312064   -0.117931
      2          6           0        0.051514    0.558989    0.062953
      3          6           0       -1.240793   -0.237576   -0.033753
      4          1           0        1.188908   -1.054807    0.577842
      5          1           0        2.070231    0.209302   -0.088099
      6          1           0        0.065750    1.328143   -0.718466
      7          1           0        0.084947    1.073912    1.044238
      8          1           0       -2.095392    0.425545    0.139364
      9          1           0       -1.334217   -0.653675   -1.055581
     10          1           0       -1.253624   -1.072451    0.751012
 ---------------------------------------------------------------------
 Rotational constants (GHZ):          32.4651129           9.0024305           7.9031264
 Standard basis: 6-31G(d) (6D, 7F)
 There are    59 symmetry adapted cartesian basis functions of A   symmetry.
 There are    59 symmetry adapted basis functions of A   symmetry.
    59 basis functions,   112 primitive gaussians,    59 cartesian basis functions
    13 alpha electrons       13 beta electrons
       nuclear repulsion energy        82.8986059221 Hartrees.
 NAtoms=   10 NActive=   10 NUniq=   10 SFac= 1.00D+00 NAtFMM=   60 NAOKFM=F Big=F
 Integral buffers will be    131072 words long.
 Raffenetti 2 integral format.
 Two-electron integral symmetry is turned on.
 One-electron integrals computed using PRISM.
 NBasis=    59 RedAO= T EigKep=  5.81D-03  NBF=    59
 NBsUse=    59 1.00D-06 EigRej= -1.00D+00 NBFU=    59
 ExpMin= 1.61D-01 ExpMax= 4.17D+03 ExpMxC= 6.27D+02 IAcc=3 IRadAn=         5 AccDes= 0.00D+00
 Harris functional with IExCor= 4538 and IRadAn=       5 diagonalized for initial guess.
 HarFok:  IExCor= 4538 AccDes= 0.00D+00 IRadAn=         5 IDoV= 1 UseB2=F ITyADJ=14
 ICtDFT=  3500011 ScaDFX=  1.000000  1.000000  1.000000  1.000000
 FoFCou: FMM=F IPFlag=           0 FMFlag=      100000 FMFlg1=           0
         NFxFlg=           0 DoJE=T BraDBF=F KetDBF=T FulRan=T
         wScrn=  0.000000 ICntrl=       500 IOpCl=  0 I1Cent=   200000004 NGrid=           0
         NMat0=    1 NMatS0=      1 NMatT0=    0 NMatD0=    1 NMtDS0=    0 NMtDT0=    0
 Petite list used in FoFCou.
 Keep R1 ints in memory in canonical form, NReq=6654843.
 Requested convergence on RMS density matrix=1.00D-08 within 128 cycles.
 Requested convergence on MAX density matrix=1.00D-06.
 Requested convergence on             energy=1.00D-06.
 No special actions if energy rises.
 Integral accuracy reduced to 1.0D-05 until final iterations.
 Initial convergence to 1.0D-05 achieved.  Increase integral accuracy.
 SCF Done:  E(RwB97X) =  -135.127425483     A.U. after   13 cycles
            NFock= 13  Conv=0.65D-08     -V/T= 2.0105

 **********************************************************************

            Population analysis using the SCF density.

 **********************************************************************

 Orbital symmetries:
       Occupied  (A) (A) (A) (A) (A) (A) (A) (A) (A) (A) (A) (A)
                 (A)
       Virtual   (A) (A) (A) (A) (A) (A) (A) (A) (A) (A) (A) (A)
                 (A) (A) (A) (A) (A) (A) (A) (A) (A) (A) (A) (A)
                 (A) (A) (A) (A) (A) (A) (A) (A) (A) (A) (A) (A)
                 (A) (A) (A) (A) (A) (A) (A) (A) (A) (A)
 The electronic state is 1-A.
 Alpha  occ. eigenvalues --  -14.37838 -10.28463 -10.25932  -1.00118  -0.84961
 Alpha  occ. eigenvalues --   -0.71467  -0.60020  -0.56586  -0.52635  -0.46413
 Alpha  occ. eigenvalues --   -0.45966  -0.44349  -0.32270
 Alpha virt. eigenvalues --    0.18108   0.22338   0.23410   0.26155   0.27078
 Alpha virt. eigenvalues --    0.28893   0.29823   0.33570   0.36063   0.63560
 Alpha virt. eigenvalues --    0.66386   0.68095   0.69287   0.78706   0.79264
 Alpha virt. eigenvalues --    0.85251   0.92255   0.96450   0.98914   1.00332
 Alpha virt. eigenvalues --    1.01988   1.05559   1.06649   1.08607   1.10846
 Alpha virt. eigenvalues --    1.16682   1.42528   1.56332   1.58447   1.68896
 Alpha virt. eigenvalues --    1.86677   2.00953   2.06256   2.09268   2.17842
 Alpha virt. eigenvalues --    2.28864   2.29360   2.41273   2.44422   2.48213
 Alpha virt. eigenvalues --    2.62457   2.71839   2.83838   3.90347   4.30958
 Alpha virt. eigenvalues --    4.54004
          Condensed to atoms (all electrons):
               1          2          3          4          5          6
     1  N    6.935706   0.310897  -0.062465   0.324500   0.327259  -0.042546
     2  C    0.310897   4.849687   0.367625  -0.036763  -0.032775   0.391892
     3  C   -0.062465   0.367625   5.105192  -0.004380   0.005541  -0.030131
     4  H    0.324500  -0.036763  -0.004380   0.434181  -0.026873   0.005677
     5  H    0.327259  -0.032775   0.005541  -0.026873   0.422215  -0.002661
     6  H   -0.042546   0.391892  -0.030131   0.005677  -0.002661   0.574211
     7  H   -0.055499   0.391455  -0.050800  -0.003504  -0.002372  -0.044477
     8  H    0.003966  -0.030537   0.373721  -0.000164  -0.000189  -0.002445
     9  H    0.003367  -0.034093   0.378322  -0.000429  -0.000097  -0.006102
    10  H   -0.004286  -0.035198   0.379488   0.005672   0.000010   0.004410
               7          8          9         10
     1  N   -0.055499   0.003966   0.003367  -0.004286
     2  C    0.391455  -0.030537  -0.034093  -0.035198
     3  C   -0.050800   0.373721   0.378322   0.379488
     4  H   -0.003504  -0.000164  -0.000429   0.005672
     5  H   -0.002372  -0.000189  -0.000097   0.000010
     6  H   -0.044477  -0.002445  -0.006102   0.004410
     7  H    0.644433   0.000068   0.005500  -0.004851
     8  H    0.000068   0.550969  -0.025284  -0.025575
     9  H    0.005500  -0.025284   0.533005  -0.024166
    10  H   -0.004851  -0.025575  -0.024166   0.568986
 Mulliken charges:
               1
     1  N   -0.740899
     2  C   -0.142191
     3  C   -0.462112
     4  H    0.302082
     5  H    0.309943
     6  H    0.152172
     7  H    0.120047
     8  H    0.155471
     9  H    0.169978
    10  H    0.135508
 Sum of Mulliken charges =  -0.00000
 Mulliken charges with hydrogens summed into heavy atoms:
               1
     1  N   -0.128874
     2  C    0.130028
     3  C   -0.001155
 Electronic spatial extent (au):  <R**2>=            206.8270
 Charge=             -0.0000 electrons
 Dipole moment (field-independent basis, Debye):
    X=              0.2323    Y=              0.5394    Z=              1.1313  Tot=              1.2746
 Quadrupole moment (field-independent basis, Debye-Ang):
   XX=            -19.0393   YY=            -20.2869   ZZ=            -21.2315
   XY=              0.5980   XZ=              1.6540   YZ=             -1.7972
 Traceless Quadrupole moment (field-independent basis, Debye-Ang):
   XX=              1.1466   YY=             -0.1010   ZZ=             -1.0456
   XY=              0.5980   XZ=              1.6540   YZ=             -1.7972
 Octapole moment (field-independent basis, Debye-Ang**2):
  XXX=              9.9604  YYY=             -1.1430  ZZZ=              0.6003  XYY=              1.6933
  XXY=              2.2711  XXZ=              1.6764  XZZ=             -0.0846  YZZ=             -0.2301
  YYZ=              1.2845  XYZ=             -1.9355
 Hexadecapole moment (field-independent basis, Debye-Ang**3):
 XXXX=           -156.9846 YYYY=            -60.8543 ZZZZ=            -37.5529 XXXY=              0.0416
 XXXZ=              2.0658 YYYX=             -1.9373 YYYZ=             -3.5438 ZZZX=              2.5901
 ZZZY=             -1.4524 XXYY=            -38.0353 XXZZ=            -36.6344 YYZZ=            -15.3295
 XXYZ=             -2.3670 YYXZ=              1.4605 ZZXY=              0.7066
 N-N= 8.289860592214D+01 E-N=-4.789350049696D+02  KE= 1.337252725212D+02
 1\1\GINC-NODE86\SP\RwB97X\6-31G(d)\C2H7N1\YANZ\22-Sep-2023\0\\# 6-31g(
 d) wb97x\\tmpdir/M3_ref_38.gjf\\0,1\N,0,-6.451024,7.145323,7.616772\C,
 0,-6.012439,5.826435,8.04295\C,0,-4.50317,5.696389,7.904672\H,0,-5.980
 97662,7.8629397,8.16449695\H,0,-7.459084,7.23725852,7.67266319\H,0,-6.
 50293,5.072316,7.415941\H,0,-6.296451,5.626708,9.095864\H,0,-4.184637,
 4.711122,8.262198\H,0,-4.229328,5.775223,6.834721\H,0,-3.97559313,6.50
 417015,8.52288616\\Version=ES64L-G16RevA.03\State=1-A\HF=-135.1274255\
 RMSD=6.452e-09\Dipole=-0.1784955,-0.0297302,0.4676948\Quadrupole=0.938
 19,0.4847614,-1.4229514,-0.2701755,-0.2518742,1.5675328\PG=C01 [X(C2H7
 N1)]\\@


 SEE YOU NOW,
 YOUR BAIT OF FALSEHOOD TAKES THIS CARP OF TRUTH.
 AND THUS DO WE OF WISDOM AND OF REACH...
 BY INDIRECTIONS FIND DIRECTIONS OUT.    -- HAMLET, II, 1
 Job cpu time:       0 days  0 hours  0 minutes 19.9 seconds.
 Elapsed time:       0 days  0 hours  0 minutes  5.2 seconds.
 File lengths (MBytes):  RWF=      6 Int=      0 D2E=      0 Chk=      1 Scr=      1
 Normal termination of Gaussian 16 at Fri Sep 22 11:08:57 2023.
