 Entering Link 1 = D:\g16w\G09W\l1.exe PID=     13344.
  
 Copyright (c) 1988,1990,1992,1993,1995,1998,2003,2009,2013,
            Gaussian, Inc.  All Rights Reserved.
  
 This is part of the Gaussian(R) 09 program.  It is based on
 the Gaussian(R) 03 system (copyright 2003, Gaussian, Inc.),
 the Gaussian(R) 98 system (copyright 1998, Gaussian, Inc.),
 the Gaussian(R) 94 system (copyright 1995, Gaussian, Inc.),
 the Gaussian 92(TM) system (copyright 1992, Gaussian, Inc.),
 the Gaussian 90(TM) system (copyright 1990, Gaussian, Inc.),
 the Gaussian 88(TM) system (copyright 1988, Gaussian, Inc.),
 the Gaussian 86(TM) system (copyright 1986, Carnegie Mellon
 University), and the Gaussian 82(TM) system (copyright 1983,
 Carnegie Mellon University). Gaussian is a federally registered
 trademark of Gaussian, Inc.
  
 This software contains proprietary and confidential information,
 including trade secrets, belonging to Gaussian, Inc.
  
 This software is provided under written license and may be
 used, copied, transmitted, or stored only in accord with that
 written license.
  
 The following legend is applicable only to US Government
 contracts under FAR:
  
                    RESTRICTED RIGHTS LEGEND
  
 Use, reproduction and disclosure by the US Government is
 subject to restrictions as set forth in subparagraphs (a)
 and (c) of the Commercial Computer Software - Restricted
 Rights clause in FAR 52.227-19.
  
 Gaussian, Inc.
 340 Quinnipiac St., Bldg. 40, Wallingford CT 06492
  
  
 ---------------------------------------------------------------
 Warning -- This program may not be used in any manner that
 competes with the business of Gaussian, Inc. or will provide
 assistance to any competitor of Gaussian, Inc.  The licensee
 of this program is prohibited from giving any competitor of
 Gaussian, Inc. access to this program.  By using this program,
 the user acknowledges that Gaussian, Inc. is engaged in the
 business of creating and licensing software in the field of
 computational chemistry and represents and warrants to the
 licensee that it is not a competitor of Gaussian, Inc. and that
 it will not use this program in any manner prohibited above.
 ---------------------------------------------------------------
  

 Cite this work as:
 Gaussian 09, Revision D.01,
 M. J. Frisch, G. W. Trucks, H. B. Schlegel, G. E. Scuseria, 
 M. A. Robb, J. R. Cheeseman, G. Scalmani, V. Barone, B. Mennucci, 
 G. A. Petersson, H. Nakatsuji, M. Caricato, X. Li, H. P. Hratchian, 
 A. F. Izmaylov, J. Bloino, G. Zheng, J. L. Sonnenberg, M. Hada, 
 M. Ehara, K. Toyota, R. Fukuda, J. Hasegawa, M. Ishida, T. Nakajima, 
 Y. Honda, O. Kitao, H. Nakai, T. Vreven, J. A. Montgomery, Jr., 
 J. E. Peralta, F. Ogliaro, M. Bearpark, J. J. Heyd, E. Brothers, 
 K. N. Kudin, V. N. Staroverov, T. Keith, R. Kobayashi, J. Normand, 
 K. Raghavachari, A. Rendell, J. C. Burant, S. S. Iyengar, J. Tomasi, 
 M. Cossi, N. Rega, J. M. Millam, M. Klene, J. E. Knox, J. B. Cross, 
 V. Bakken, C. Adamo, J. Jaramillo, R. Gomperts, R. E. Stratmann, 
 O. Yazyev, A. J. Austin, R. Cammi, C. Pomelli, J. W. Ochterski, 
 R. L. Martin, K. Morokuma, V. G. Zakrzewski, G. A. Voth, 
 P. Salvador, J. J. Dannenberg, S. Dapprich, A. D. Daniels, 
 O. Farkas, J. B. Foresman, J. V. Ortiz, J. Cioslowski, 
 and D. J. Fox, Gaussian, Inc., Wallingford CT, 2013.
 
 ******************************************
 Gaussian 09:  IA32W-G09RevD.01 24-Apr-2013
                06-Nov-2023 
 ******************************************
 %chk=TS-4F.chk
 --------------------------------------------------
 # b3lyp/6-31g(d) geom=connectivity scan nosymmetry
 --------------------------------------------------
 1/38=1,57=2,60=1/1,8;
 2/12=2,15=1,17=6,18=5,29=3,40=1/2;
 3/5=1,6=6,7=1,11=2,16=1,25=1,30=1,74=-5/1,2,3;
 4//1;
 5/5=2,38=5/2;
 6/7=2,8=2,9=2,10=2,18=1,28=1/1;
 1/60=1/8(1);
 99/9=1/99;
 2/15=1,29=3/2;
 3/5=1,6=6,7=1,11=2,16=1,25=1,30=1,74=-5/1,2,3;
 4/5=5,16=3,69=1/1;
 5/5=2,38=5/2;
 1/60=1/8(-4);
 99/9=1/99;
 ----------
 title card
 ----------
 Symbolic Z-matrix:
 Charge =  0 Multiplicity = 1
 C
 C                    1    B1
 H                    2    B2       1    A1
 C                    1    B3       2    A2       3    D1       0
 H                    4    B4       1    A3       2    D2       0
 H                    4    B5       1    A4       2    D3       0
 N                    1    B6       2    A5       4    D4       0
 O                    7    B7       1    A6       2    D5       0
 H                    8    B8       7    A7       1    D6       0
 H                    7    B9       1    A8       2    D7       0
 C                    7    B10      1    A9       2    D8       0
 H                    11   B11      7    A10      1    D9       0
 H                    11   B12      7    A11      1    D10      0
 C                    11   B13      7    A12      1    D11      0
 H                    14   B14      11   A13      7    D12      0
 H                    14   B15      11   A14      7    D13      0
       Variables:
  B1                    1.25812                  
  B2                    1.07747                  
  B3                    1.48819                  
  B4                    1.09692                  
  B5                    1.09736                  
  B6                    2.00148                  
  B7                    1.36029Scan 10   -0.01   
  B8                    1.09162Scan 10    0.01   
  B9                    1.02028                  
  B10                   1.4585                   
  B11                   1.09276                  
  B12                   1.09736                  
  B13                   1.5396                   
  B14                   1.09683                  
  B15                   1.09412                  
  A1                  138.02343                  
  A2                  159.71395                  
  A3                  108.28196                  
  A4                  110.5584                   
  A5                  102.49791                  
  A6                  101.9783                   
  A7                   97.32042                  
  A8                  113.93782                  
  A9                   96.34216                  
  A10                 105.89626                  
  A11                 113.2433                   
  A12                 104.40276                  
  A13                 109.27653                  
  A14                 110.69379                  
  D1                  -20.409                    
  D2                  -16.42147                  
  D3                   99.54232                  
  D4                 -154.12838                  
  D5                    9.86356                  
  D6                   -8.6558                   
  D7                 -108.90032                  
  D8                  131.50034                  
  D9                  -72.02879                  
  D10                 168.91988                  
  D11                  46.20095                  
  D12                  78.42465                  
  D13                -164.52219                  
 
 Scan the potential surface.
 Variable   Value     No. Steps Step-Size
 -------- ----------- --------- ---------
     7       1.360288      10     -0.0100
     8       1.091623      10      0.0100
 A total of    121 points will be computed.
 ---------------------------------------------------------------------------------------------------
                            Z-MATRIX (ANGSTROMS AND DEGREES)
   CD    Cent   Atom    N1       Length/X        N2       Alpha/Y        N3        Beta/Z          J
 ---------------------------------------------------------------------------------------------------
      1      1  C 
      2      2  C        1   1.258123(     1)
      3      3  H        2   1.077475(     2)      1  138.023(    16)
      4      4  C        1   1.488191(     3)      2  159.714(    17)      3  -20.409(    30)      0
      5      5  H        4   1.096924(     4)      1  108.282(    18)      2  -16.421(    31)      0
      6      6  H        4   1.097358(     5)      1  110.558(    19)      2   99.542(    32)      0
      7      7  N        1   2.001477(     6)      2  102.498(    20)      4 -154.128(    33)      0
      8      8  O        7   1.360288(     7)      1  101.978(    21)      2    9.864(    34)      0
      9      9  H        8   1.091623(     8)      7   97.320(    22)      1   -8.656(    35)      0
     10     10  H        7   1.020282(     9)      1  113.938(    23)      2 -108.900(    36)      0
     11     11  C        7   1.458505(    10)      1   96.342(    24)      2  131.500(    37)      0
     12     12  H       11   1.092760(    11)      7  105.896(    25)      1  -72.029(    38)      0
     13     13  H       11   1.097358(    12)      7  113.243(    26)      1  168.920(    39)      0
     14     14  C       11   1.539600(    13)      7  104.403(    27)      1   46.201(    40)      0
     15     15  H       14   1.096826(    14)     11  109.277(    28)      7   78.425(    41)      0
     16     16  H       14   1.094121(    15)     11  110.694(    29)      7 -164.522(    42)      0
 ---------------------------------------------------------------------------------------------------
                         Z-Matrix orientation:                         
 ---------------------------------------------------------------------
 Center     Atomic      Atomic             Coordinates (Angstroms)
 Number     Number       Type             X           Y           Z
 ---------------------------------------------------------------------
      1          6           0        0.000000    0.000000    0.000000
      2          6           0        0.000000    0.000000    1.258123
      3          1           0        0.720644    0.000000    2.059137
      4          6           0        0.483578    0.179927   -1.395883
      5          1           0        1.370986    0.824280   -1.372253
      6          1           0        0.812401   -0.778847   -1.816386
      7          7           0       -1.945175    0.186018   -0.433128
      8          8           0       -2.480267    0.466177    0.785713
      9          1           0       -1.582171    0.280662    1.377868
     10          1           0       -2.366420   -0.659968   -0.817621
     11          6           0       -1.791489    1.261939   -1.405759
     12          1           0       -1.537299    2.153834   -0.827802
     13          1           0       -2.705990    1.461994   -1.978350
     14          6           0       -0.624031    0.805987   -2.299917
     15          1           0       -0.987064    0.059274   -3.016614
     16          1           0       -0.239111    1.643128   -2.889945
 ---------------------------------------------------------------------
                    Distance matrix (angstroms):
                    1          2          3          4          5
     1  C    0.000000
     2  C    1.258123   0.000000
     3  H    2.181599   1.077475   0.000000
     4  C    1.488191   2.703696   3.467815   0.000000
     5  H    2.107634   3.078623   3.588429   1.096924   0.000000
     6  H    2.136786   3.274019   3.954075   1.097358   1.754790
     7  N    2.001477   2.584306   3.654118   2.612619   3.505176
     8  O    2.643178   2.567532   3.476315   3.691298   4.429132
     9  H    2.116733   1.611327   2.417820   3.459937   4.071833
    10  H    2.589209   3.216242   4.270979   3.026929   4.059410
    11  C    2.603475   3.449375   4.461929   2.519281   3.192791
    12  H    2.772642   3.369477   4.251085   2.881487   3.243803
    13  H    3.657004   4.464814   5.493683   3.486589   4.170823
    14  C    2.515680   3.701173   4.632399   1.560777   2.200224
    15  H    3.174550   4.387617   5.355654   2.191829   2.974820
    16  H    3.332991   4.468055   5.302303   2.212568   2.359303
                    6          7          8          9         10
     6  H    0.000000
     7  N    3.232428   0.000000
     8  O    4.377518   1.360288   0.000000
     9  H    4.130351   1.849442   1.091623   0.000000
    10  H    3.334151   1.020282   1.962612   2.513963   0.000000
    11  C    3.333715   1.458505   2.431091   2.958936   2.090497
    12  H    3.885743   2.048031   2.518096   2.894092   2.933433
    13  H    4.174526   2.143517   2.946633   3.731315   2.442401
    14  C    2.192906   2.369533   3.616932   3.836679   2.717010
    15  H    2.319713   2.758340   4.105230   4.440117   2.693603
    16  H    2.850292   3.327127   4.463010   4.677003   3.758220
                   11         12         13         14         15
    11  C    0.000000
    12  H    1.092760   0.000000
    13  H    1.097358   1.779956   0.000000
    14  C    1.539600   2.194965   2.206424   0.000000
    15  H    2.165260   3.079097   2.449555   1.096826   0.000000
    16  H    2.181282   2.489688   2.636154   1.094121   1.756152
                   16
    16  H    0.000000
 Symmetry turned off by external request.
 Stoichiometry    C5H9NO
 Framework group  C1[X(C5H9NO)]
 Deg. of freedom    42
 Full point group                 C1      NOp   1
 Rotational constants (GHZ):      3.6795483      2.8464480      1.7475194
 Standard basis: 6-31G(d) (6D, 7F)
   123 basis functions,   232 primitive gaussians,   123 cartesian basis functions
    27 alpha electrons       27 beta electrons
       nuclear repulsion energy       310.3644283697 Hartrees.
 NAtoms=   16 NActive=   16 NUniq=   16 SFac= 1.00D+00 NAtFMM=   60 NAOKFM=F Big=F
 Integral buffers will be    262144 words long.
 Raffenetti 2 integral format.
 Two-electron integral symmetry is turned off.
 One-electron integrals computed using PRISM.
 NBasis=   123 RedAO= T EigKep=  1.39D-03  NBF=   123
 NBsUse=   123 1.00D-06 EigRej= -1.00D+00 NBFU=   123
 ExpMin= 1.61D-01 ExpMax= 5.48D+03 ExpMxC= 8.25D+02 IAcc=1 IRadAn=         1 AccDes= 0.00D+00
 Harris functional with IExCor=  402 and IRadAn=       1 diagonalized for initial guess.
 HarFok:  IExCor=  402 AccDes= 0.00D+00 IRadAn=         1 IDoV= 1 UseB2=F ITyADJ=14
 ICtDFT=  3500011 ScaDFX=  1.000000  1.000000  1.000000  1.000000
 FoFCou: FMM=F IPFlag=           0 FMFlag=      100000 FMFlg1=           0
         NFxFlg=           0 DoJE=T BraDBF=F KetDBF=T FulRan=T
         wScrn=  0.000000 ICntrl=     500 IOpCl=  0 I1Cent=   200000004 NGrid=           0
         NMat0=    1 NMatS0=      1 NMatT0=    0 NMatD0=    1 NMtDS0=    0 NMtDT0=    0
 Symmetry not used in FoFCou.
 Keep R1 ints in memory in canonical form, NReq=30092632.
 Requested convergence on RMS density matrix=1.00D-08 within 128 cycles.
 Requested convergence on MAX density matrix=1.00D-06.
 Requested convergence on             energy=1.00D-06.
 No special actions if energy rises.
 Integral accuracy reduced to 1.0D-05 until final iterations.
 Initial convergence to 1.0D-05 achieved.  Increase integral accuracy.
 SCF Done:  E(RB3LYP) =  -325.751925304     A.U. after   15 cycles
            NFock= 15  Conv=0.78D-08     -V/T= 2.0094

 **********************************************************************

            Population analysis using the SCF density.

 **********************************************************************

 Alpha  occ. eigenvalues --  -19.14519 -14.40999 -10.22675 -10.20813 -10.20530
 Alpha  occ. eigenvalues --  -10.19628 -10.14157  -1.06548  -0.85919  -0.77811
 Alpha  occ. eigenvalues --   -0.72612  -0.67746  -0.61425  -0.52885  -0.51227
 Alpha  occ. eigenvalues --   -0.48983  -0.47184  -0.45009  -0.43529  -0.40535
 Alpha  occ. eigenvalues --   -0.38630  -0.36907  -0.35766  -0.26942  -0.26696
 Alpha  occ. eigenvalues --   -0.24340  -0.21828
 Alpha virt. eigenvalues --    0.03322   0.05004   0.07488   0.10264   0.11941
 Alpha virt. eigenvalues --    0.13850   0.14991   0.15241   0.18401   0.18700
 Alpha virt. eigenvalues --    0.19020   0.21539   0.22324   0.25682   0.27801
 Alpha virt. eigenvalues --    0.31751   0.40067   0.46276   0.51060   0.54549
 Alpha virt. eigenvalues --    0.55118   0.58472   0.59204   0.61875   0.62595
 Alpha virt. eigenvalues --    0.67368   0.68887   0.71513   0.72398   0.76849
 Alpha virt. eigenvalues --    0.78726   0.79675   0.81676   0.84387   0.85138
 Alpha virt. eigenvalues --    0.85787   0.87488   0.88952   0.90385   0.92218
 Alpha virt. eigenvalues --    0.93557   0.94681   1.00151   1.02762   1.05355
 Alpha virt. eigenvalues --    1.09622   1.13329   1.15687   1.21571   1.31931
 Alpha virt. eigenvalues --    1.36244   1.39181   1.40174   1.47388   1.48713
 Alpha virt. eigenvalues --    1.62768   1.64166   1.66276   1.73167   1.75000
 Alpha virt. eigenvalues --    1.76340   1.82510   1.85973   1.87786   1.91852
 Alpha virt. eigenvalues --    1.94363   1.95862   1.99735   2.05039   2.06408
 Alpha virt. eigenvalues --    2.10627   2.14022   2.18030   2.23651   2.30019
 Alpha virt. eigenvalues --    2.35141   2.35748   2.42726   2.43030   2.44821
 Alpha virt. eigenvalues --    2.45947   2.54710   2.58788   2.61640   2.67789
 Alpha virt. eigenvalues --    2.79769   2.82653   2.95482   3.19826   3.75699
 Alpha virt. eigenvalues --    4.09651   4.13082   4.20362   4.30147   4.44061
 Alpha virt. eigenvalues --    4.68164
          Condensed to atoms (all electrons):
               1          2          3          4          5          6
     1  C    4.676341   0.770043  -0.033795   0.371681  -0.032248  -0.030967
     2  C    0.770043   5.496993   0.360642  -0.142246  -0.003606   0.001608
     3  H   -0.033795   0.360642   0.531999  -0.000799   0.000168  -0.000009
     4  C    0.371681  -0.142246  -0.000799   5.255777   0.371100   0.359787
     5  H   -0.032248  -0.003606   0.000168   0.371100   0.562710  -0.036788
     6  H   -0.030967   0.001608  -0.000009   0.359787  -0.036788   0.577542
     7  N    0.068154  -0.003535   0.003636  -0.088044   0.002669   0.001863
     8  O   -0.044074  -0.070363   0.000337   0.001096  -0.000052  -0.000028
     9  H    0.036715   0.129370  -0.008910   0.006936  -0.000048  -0.000078
    10  H   -0.004540  -0.000956  -0.000093   0.003751  -0.000025  -0.000125
    11  C   -0.027727  -0.003093  -0.000099  -0.042764  -0.000016   0.003136
    12  H    0.000308   0.000158  -0.000063  -0.000668   0.000510  -0.000014
    13  H    0.002989   0.000052   0.000005   0.003777  -0.000038  -0.000069
    14  C   -0.038819   0.007757  -0.000039   0.305797  -0.033704  -0.034489
    15  H   -0.001592  -0.000323  -0.000001  -0.030239   0.004176  -0.009073
    16  H    0.002802  -0.000077   0.000003  -0.025666  -0.006837   0.003192
               7          8          9         10         11         12
     1  C    0.068154  -0.044074   0.036715  -0.004540  -0.027727   0.000308
     2  C   -0.003535  -0.070363   0.129370  -0.000956  -0.003093   0.000158
     3  H    0.003636   0.000337  -0.008910  -0.000093  -0.000099  -0.000063
     4  C   -0.088044   0.001096   0.006936   0.003751  -0.042764  -0.000668
     5  H    0.002669  -0.000052  -0.000048  -0.000025  -0.000016   0.000510
     6  H    0.001863  -0.000028  -0.000078  -0.000125   0.003136  -0.000014
     7  N    6.805159   0.175851  -0.098244   0.301682   0.251449  -0.038328
     8  O    0.175851   8.377916   0.141768  -0.036987  -0.052035   0.007092
     9  H   -0.098244   0.141768   0.417724   0.005907   0.008086   0.001506
    10  H    0.301682  -0.036987   0.005907   0.443925  -0.052127   0.006476
    11  C    0.251449  -0.052035   0.008086  -0.052127   5.008557   0.368772
    12  H   -0.038328   0.007092   0.001506   0.006476   0.368772   0.534339
    13  H   -0.033081   0.002341  -0.000697  -0.003907   0.366339  -0.032517
    14  C   -0.066084   0.004409  -0.000680   0.004827   0.350233  -0.026206
    15  H   -0.002593  -0.000033   0.000041   0.002863  -0.036052   0.004637
    16  H    0.004228  -0.000078   0.000003  -0.000320  -0.025950  -0.005509
              13         14         15         16
     1  C    0.002989  -0.038819  -0.001592   0.002802
     2  C    0.000052   0.007757  -0.000323  -0.000077
     3  H    0.000005  -0.000039  -0.000001   0.000003
     4  C    0.003777   0.305797  -0.030239  -0.025666
     5  H   -0.000038  -0.033704   0.004176  -0.006837
     6  H   -0.000069  -0.034489  -0.009073   0.003192
     7  N   -0.033081  -0.066084  -0.002593   0.004228
     8  O    0.002341   0.004409  -0.000033  -0.000078
     9  H   -0.000697  -0.000680   0.000041   0.000003
    10  H   -0.003907   0.004827   0.002863  -0.000320
    11  C    0.366339   0.350233  -0.036052  -0.025950
    12  H   -0.032517  -0.026206   0.004637  -0.005509
    13  H    0.584303  -0.039590  -0.005317   0.002597
    14  C   -0.039590   5.118948   0.372580   0.369681
    15  H   -0.005317   0.372580   0.589923  -0.034956
    16  H    0.002597   0.369681  -0.034956   0.558729
 Mulliken charges:
               1
     1  C    0.284729
     2  C   -0.542424
     3  H    0.147019
     4  C   -0.349277
     5  H    0.172031
     6  H    0.164511
     7  N   -0.284782
     8  O   -0.507162
     9  H    0.360600
    10  H    0.329648
    11  C   -0.116707
    12  H    0.179508
    13  H    0.152813
    14  C   -0.294621
    15  H    0.145958
    16  H    0.158156
 Sum of Mulliken charges =   0.00000
 Mulliken charges with hydrogens summed into heavy atoms:
               1
     1  C    0.284729
     2  C   -0.395406
     4  C   -0.012735
     7  N    0.044867
     8  O   -0.146562
    11  C    0.215614
    14  C    0.009493
 Electronic spatial extent (au):  <R**2>=            995.1891
 Charge=              0.0000 electrons
 Dipole moment (field-independent basis, Debye):
    X=              0.7660    Y=              0.0290    Z=             -3.4723  Tot=              3.5559
 Quadrupole moment (field-independent basis, Debye-Ang):
   XX=            -44.8904   YY=            -41.4670   ZZ=            -39.1178
   XY=              1.9331   XZ=              6.2949   YZ=             -1.0489
 Traceless Quadrupole moment (field-independent basis, Debye-Ang):
   XX=             -3.0654   YY=              0.3581   ZZ=              2.7073
   XY=              1.9331   XZ=              6.2949   YZ=             -1.0489
 Octapole moment (field-independent basis, Debye-Ang**2):
  XXX=            124.4556  YYY=            -52.5942  ZZZ=             68.2395  XYY=             35.5774
  XXY=            -24.3543  XXZ=              8.0343  XZZ=             36.9689  YZZ=            -16.8008
  YYZ=             18.3501  XYZ=              1.3496
 Hexadecapole moment (field-independent basis, Debye-Ang**3):
 XXXX=           -602.5461 YYYY=           -159.6237 ZZZZ=           -533.0328 XXXY=             97.9583
 XXXZ=             -4.6809 YYYX=             77.3565 YYYZ=             68.2651 ZZZX=            -37.3903
 ZZZY=             70.4350 XXYY=           -117.4538 XXZZ=           -176.5231 YYZZ=           -113.8503
 XXYZ=             19.2725 YYXZ=            -11.4414 ZZXY=             25.4466
 N-N= 3.103644283697D+02 E-N=-1.378943602220D+03  KE= 3.227258404603D+02
 Variable Step   Value    
 -------- ---- -----------
     7       1    2.551675
     8       0    2.062869
 ---------------------------------------------------------------------------------------------------
                            Z-MATRIX (ANGSTROMS AND DEGREES)
   CD    Cent   Atom    N1       Length/X        N2       Alpha/Y        N3        Beta/Z          J
 ---------------------------------------------------------------------------------------------------
      1      1  C 
      2      2  C        1   1.258123(     1)
      3      3  H        2   1.077475(     2)      1  138.023(    16)
      4      4  C        1   1.488191(     3)      2  159.714(    17)      3  -20.409(    30)      0
      5      5  H        4   1.096924(     4)      1  108.282(    18)      2  -16.421(    31)      0
      6      6  H        4   1.097358(     5)      1  110.558(    19)      2   99.542(    32)      0
      7      7  N        1   2.001477(     6)      2  102.498(    20)      4 -154.128(    33)      0
      8      8  O        7   1.350288(     7)      1  101.978(    21)      2    9.864(    34)      0
      9      9  H        8   1.091623(     8)      7   97.320(    22)      1   -8.656(    35)      0
     10     10  H        7   1.020282(     9)      1  113.938(    23)      2 -108.900(    36)      0
     11     11  C        7   1.458505(    10)      1   96.342(    24)      2  131.500(    37)      0
     12     12  H       11   1.092760(    11)      7  105.896(    25)      1  -72.029(    38)      0
     13     13  H       11   1.097358(    12)      7  113.243(    26)      1  168.920(    39)      0
     14     14  C       11   1.539600(    13)      7  104.403(    27)      1   46.201(    40)      0
     15     15  H       14   1.096826(    14)     11  109.277(    28)      7   78.425(    41)      0
     16     16  H       14   1.094121(    15)     11  110.694(    29)      7 -164.522(    42)      0
 ---------------------------------------------------------------------------------------------------
                         Z-Matrix orientation:                         
 ---------------------------------------------------------------------
 Center     Atomic      Atomic             Coordinates (Angstroms)
 Number     Number       Type             X           Y           Z
 ---------------------------------------------------------------------
      1          6           0        0.000000    0.000000    0.000000
      2          6           0        0.000000    0.000000    1.258123
      3          1           0        0.720644    0.000000    2.059137
      4          6           0        0.483578    0.179927   -1.395883
      5          1           0        1.370986    0.824280   -1.372253
      6          1           0        0.812401   -0.778847   -1.816386
      7          7           0       -1.945175    0.186018   -0.433128
      8          8           0       -2.476334    0.464117    0.776753
      9          1           0       -1.578237    0.278603    1.368908
     10          1           0       -2.366420   -0.659968   -0.817621
     11          6           0       -1.791489    1.261939   -1.405759
     12          1           0       -1.537299    2.153834   -0.827802
     13          1           0       -2.705990    1.461994   -1.978350
     14          6           0       -0.624031    0.805987   -2.299917
     15          1           0       -0.987064    0.059274   -3.016614
     16          1           0       -0.239111    1.643128   -2.889945
 ---------------------------------------------------------------------
                    Distance matrix (angstroms):
                    1          2          3          4          5
     1  C    0.000000
     2  C    1.258123   0.000000
     3  H    2.181599   1.077475   0.000000
     4  C    1.488191   2.703696   3.467815   0.000000
     5  H    2.107634   3.078623   3.588429   1.096924   0.000000
     6  H    2.136786   3.274019   3.954075   1.097358   1.754790
     7  N    2.001477   2.584306   3.654118   2.612619   3.505176
     8  O    2.636471   2.565025   3.475713   3.682687   4.421517
     9  H    2.107691   1.606464   2.416380   3.450347   4.063207
    10  H    2.589209   3.216242   4.270979   3.026929   4.059410
    11  C    2.603475   3.449375   4.461929   2.519281   3.192791
    12  H    2.772642   3.369477   4.251085   2.881487   3.243803
    13  H    3.657004   4.464814   5.493683   3.486589   4.170823
    14  C    2.515680   3.701173   4.632399   1.560777   2.200224
    15  H    3.174550   4.387617   5.355654   2.191829   2.974820
    16  H    3.332991   4.468055   5.302303   2.212568   2.359303
                    6          7          8          9         10
     6  H    0.000000
     7  N    3.232428   0.000000
     8  O    4.368650   1.350288   0.000000
     9  H    4.120613   1.841344   1.091623   0.000000
    10  H    3.334151   1.020282   1.953888   2.506603   0.000000
    11  C    3.333715   1.458505   2.422579   2.951475   2.090497
    12  H    3.885743   2.048031   2.512275   2.888547   2.933433
    13  H    4.174526   2.143517   2.939233   3.725101   2.442401
    14  C    2.192906   2.369533   3.607464   3.827391   2.717010
    15  H    2.319713   2.758340   4.095296   4.430620   2.693603
    16  H    2.850292   3.327127   4.454201   4.668300   3.758220
                   11         12         13         14         15
    11  C    0.000000
    12  H    1.092760   0.000000
    13  H    1.097358   1.779956   0.000000
    14  C    1.539600   2.194965   2.206424   0.000000
    15  H    2.165260   3.079097   2.449555   1.096826   0.000000
    16  H    2.181282   2.489688   2.636154   1.094121   1.756152
                   16
    16  H    0.000000
 Symmetry turned off by external request.
 Stoichiometry    C5H9NO
 Framework group  C1[X(C5H9NO)]
 Deg. of freedom    42
 Full point group                 C1      NOp   1
 Rotational constants (GHZ):      3.6805439      2.8554622      1.7511135
 Standard basis: 6-31G(d) (6D, 7F)
   123 basis functions,   232 primitive gaussians,   123 cartesian basis functions
    27 alpha electrons       27 beta electrons
       nuclear repulsion energy       310.6873131523 Hartrees.
 NAtoms=   16 NActive=   16 NUniq=   16 SFac= 1.00D+00 NAtFMM=   60 NAOKFM=F Big=F
 Integral buffers will be    262144 words long.
 Raffenetti 2 integral format.
 Two-electron integral symmetry is turned off.
 One-electron integrals computed using PRISM.
 NBasis=   123 RedAO= T EigKep=  1.39D-03  NBF=   123
 NBsUse=   123 1.00D-06 EigRej= -1.00D+00 NBFU=   123
 Initial guess from the checkpoint file:  "TS-4F.chk"
 B after Tr=     0.001059   -0.000263   -0.002192
         Rot=    1.000000   -0.000127    0.000232   -0.000178 Ang=  -0.04 deg.
 ExpMin= 1.61D-01 ExpMax= 5.48D+03 ExpMxC= 8.25D+02 IAcc=1 IRadAn=         1 AccDes= 0.00D+00
 Harris functional with IExCor=  402 and IRadAn=       1 diagonalized for initial guess.
 HarFok:  IExCor=  402 AccDes= 0.00D+00 IRadAn=         1 IDoV= 1 UseB2=F ITyADJ=14
 ICtDFT=  3500011 ScaDFX=  1.000000  1.000000  1.000000  1.000000
 FoFCou: FMM=F IPFlag=           0 FMFlag=      100000 FMFlg1=           0
         NFxFlg=           0 DoJE=T BraDBF=F KetDBF=T FulRan=T
         wScrn=  0.000000 ICntrl=     500 IOpCl=  0 I1Cent=   200000004 NGrid=           0
         NMat0=    1 NMatS0=      1 NMatT0=    0 NMatD0=    1 NMtDS0=    0 NMtDT0=    0
 Symmetry not used in FoFCou.
 Keep R1 ints in memory in canonical form, NReq=30092632.
 Requested convergence on RMS density matrix=1.00D-08 within 128 cycles.
 Requested convergence on MAX density matrix=1.00D-06.
 Requested convergence on             energy=1.00D-06.
 No special actions if energy rises.
 Integral accuracy reduced to 1.0D-05 until final iterations.
 Initial convergence to 1.0D-05 achieved.  Increase integral accuracy.
 SCF Done:  E(RB3LYP) =  -325.751844499     A.U. after   11 cycles
            NFock= 11  Conv=0.51D-08     -V/T= 2.0093
 Variable Step   Value    
 -------- ---- -----------
     7       2    2.532778
     8       0    2.062869
 ---------------------------------------------------------------------------------------------------
                            Z-MATRIX (ANGSTROMS AND DEGREES)
   CD    Cent   Atom    N1       Length/X        N2       Alpha/Y        N3        Beta/Z          J
 ---------------------------------------------------------------------------------------------------
      1      1  C 
      2      2  C        1   1.258123(     1)
      3      3  H        2   1.077475(     2)      1  138.023(    16)
      4      4  C        1   1.488191(     3)      2  159.714(    17)      3  -20.409(    30)      0
      5      5  H        4   1.096924(     4)      1  108.282(    18)      2  -16.421(    31)      0
      6      6  H        4   1.097358(     5)      1  110.558(    19)      2   99.542(    32)      0
      7      7  N        1   2.001477(     6)      2  102.498(    20)      4 -154.128(    33)      0
      8      8  O        7   1.340288(     7)      1  101.978(    21)      2    9.864(    34)      0
      9      9  H        8   1.091623(     8)      7   97.320(    22)      1   -8.656(    35)      0
     10     10  H        7   1.020282(     9)      1  113.938(    23)      2 -108.900(    36)      0
     11     11  C        7   1.458505(    10)      1   96.342(    24)      2  131.500(    37)      0
     12     12  H       11   1.092760(    11)      7  105.896(    25)      1  -72.029(    38)      0
     13     13  H       11   1.097358(    12)      7  113.243(    26)      1  168.920(    39)      0
     14     14  C       11   1.539600(    13)      7  104.403(    27)      1   46.201(    40)      0
     15     15  H       14   1.096826(    14)     11  109.277(    28)      7   78.425(    41)      0
     16     16  H       14   1.094121(    15)     11  110.694(    29)      7 -164.522(    42)      0
 ---------------------------------------------------------------------------------------------------
                         Z-Matrix orientation:                         
 ---------------------------------------------------------------------
 Center     Atomic      Atomic             Coordinates (Angstroms)
 Number     Number       Type             X           Y           Z
 ---------------------------------------------------------------------
      1          6           0        0.000000    0.000000    0.000000
      2          6           0        0.000000    0.000000    1.258123
      3          1           0        0.720644    0.000000    2.059137
      4          6           0        0.483578    0.179927   -1.395883
      5          1           0        1.370986    0.824280   -1.372253
      6          1           0        0.812401   -0.778847   -1.816386
      7          7           0       -1.945175    0.186018   -0.433128
      8          8           0       -2.472400    0.462058    0.767792
      9          1           0       -1.574304    0.276543    1.359948
     10          1           0       -2.366420   -0.659968   -0.817621
     11          6           0       -1.791489    1.261939   -1.405759
     12          1           0       -1.537299    2.153834   -0.827802
     13          1           0       -2.705990    1.461994   -1.978350
     14          6           0       -0.624031    0.805987   -2.299917
     15          1           0       -0.987064    0.059274   -3.016614
     16          1           0       -0.239111    1.643128   -2.889945
 ---------------------------------------------------------------------
                    Distance matrix (angstroms):
                    1          2          3          4          5
     1  C    0.000000
     2  C    1.258123   0.000000
     3  H    2.181599   1.077475   0.000000
     4  C    1.488191   2.703696   3.467815   0.000000
     5  H    2.107634   3.078623   3.588429   1.096924   0.000000
     6  H    2.136786   3.274019   3.954075   1.097358   1.754790
     7  N    2.001477   2.584306   3.654118   2.612619   3.505176
     8  O    2.629784   2.562554   3.475140   3.674084   4.413912
     9  H    2.098659   1.601648   2.414980   3.440758   4.054586
    10  H    2.589209   3.216242   4.270979   3.026929   4.059410
    11  C    2.603475   3.449375   4.461929   2.519281   3.192791
    12  H    2.772642   3.369477   4.251085   2.881487   3.243803
    13  H    3.657004   4.464814   5.493683   3.486589   4.170823
    14  C    2.515680   3.701173   4.632399   1.560777   2.200224
    15  H    3.174550   4.387617   5.355654   2.191829   2.974820
    16  H    3.332991   4.468055   5.302303   2.212568   2.359303
                    6          7          8          9         10
     6  H    0.000000
     7  N    3.232428   0.000000
     8  O    4.359786   1.340288   0.000000
     9  H    4.110876   1.833265   1.091623   0.000000
    10  H    3.334151   1.020282   1.945176   2.499262   0.000000
    11  C    3.333715   1.458505   2.414079   2.944030   2.090497
    12  H    3.885743   2.048031   2.506480   2.883027   2.933433
    13  H    4.174526   2.143517   2.931848   3.718903   2.442401
    14  C    2.192906   2.369533   3.597999   3.818107   2.717010
    15  H    2.319713   2.758340   4.085363   4.421126   2.693603
    16  H    2.850292   3.327127   4.445397   4.659602   3.758220
                   11         12         13         14         15
    11  C    0.000000
    12  H    1.092760   0.000000
    13  H    1.097358   1.779956   0.000000
    14  C    1.539600   2.194965   2.206424   0.000000
    15  H    2.165260   3.079097   2.449555   1.096826   0.000000
    16  H    2.181282   2.489688   2.636154   1.094121   1.756152
                   16
    16  H    0.000000
 Symmetry turned off by external request.
 Stoichiometry    C5H9NO
 Framework group  C1[X(C5H9NO)]
 Deg. of freedom    42
 Full point group                 C1      NOp   1
 Rotational constants (GHZ):      3.6815769      2.8644638      1.7547059
 Standard basis: 6-31G(d) (6D, 7F)
   123 basis functions,   232 primitive gaussians,   123 cartesian basis functions
    27 alpha electrons       27 beta electrons
       nuclear repulsion energy       311.0131129278 Hartrees.
 NAtoms=   16 NActive=   16 NUniq=   16 SFac= 1.00D+00 NAtFMM=   60 NAOKFM=F Big=F
 Integral buffers will be    262144 words long.
 Raffenetti 2 integral format.
 Two-electron integral symmetry is turned off.
 One-electron integrals computed using PRISM.
 NBasis=   123 RedAO= T EigKep=  1.39D-03  NBF=   123
 NBsUse=   123 1.00D-06 EigRej= -1.00D+00 NBFU=   123
 Initial guess from the checkpoint file:  "TS-4F.chk"
 B after Tr=     0.001057   -0.000263   -0.002191
         Rot=    1.000000   -0.000127    0.000233   -0.000179 Ang=  -0.04 deg.
 ExpMin= 1.61D-01 ExpMax= 5.48D+03 ExpMxC= 8.25D+02 IAcc=1 IRadAn=         1 AccDes= 0.00D+00
 Harris functional with IExCor=  402 and IRadAn=       1 diagonalized for initial guess.
 HarFok:  IExCor=  402 AccDes= 0.00D+00 IRadAn=         1 IDoV= 1 UseB2=F ITyADJ=14
 ICtDFT=  3500011 ScaDFX=  1.000000  1.000000  1.000000  1.000000
 FoFCou: FMM=F IPFlag=           0 FMFlag=      100000 FMFlg1=           0
         NFxFlg=           0 DoJE=T BraDBF=F KetDBF=T FulRan=T
         wScrn=  0.000000 ICntrl=     500 IOpCl=  0 I1Cent=   200000004 NGrid=           0
         NMat0=    1 NMatS0=      1 NMatT0=    0 NMatD0=    1 NMtDS0=    0 NMtDT0=    0
 Symmetry not used in FoFCou.
 Keep R1 ints in memory in canonical form, NReq=30092632.
 Requested convergence on RMS density matrix=1.00D-08 within 128 cycles.
 Requested convergence on MAX density matrix=1.00D-06.
 Requested convergence on             energy=1.00D-06.
 No special actions if energy rises.
 Integral accuracy reduced to 1.0D-05 until final iterations.
 Initial convergence to 1.0D-05 achieved.  Increase integral accuracy.
 SCF Done:  E(RB3LYP) =  -325.751596960     A.U. after   11 cycles
            NFock= 11  Conv=0.52D-08     -V/T= 2.0092
 Variable Step   Value    
 -------- ---- -----------
     7       3    2.513881
     8       0    2.062869
 ---------------------------------------------------------------------------------------------------
                            Z-MATRIX (ANGSTROMS AND DEGREES)
   CD    Cent   Atom    N1       Length/X        N2       Alpha/Y        N3        Beta/Z          J
 ---------------------------------------------------------------------------------------------------
      1      1  C 
      2      2  C        1   1.258123(     1)
      3      3  H        2   1.077475(     2)      1  138.023(    16)
      4      4  C        1   1.488191(     3)      2  159.714(    17)      3  -20.409(    30)      0
      5      5  H        4   1.096924(     4)      1  108.282(    18)      2  -16.421(    31)      0
      6      6  H        4   1.097358(     5)      1  110.558(    19)      2   99.542(    32)      0
      7      7  N        1   2.001477(     6)      2  102.498(    20)      4 -154.128(    33)      0
      8      8  O        7   1.330288(     7)      1  101.978(    21)      2    9.864(    34)      0
      9      9  H        8   1.091623(     8)      7   97.320(    22)      1   -8.656(    35)      0
     10     10  H        7   1.020282(     9)      1  113.938(    23)      2 -108.900(    36)      0
     11     11  C        7   1.458505(    10)      1   96.342(    24)      2  131.500(    37)      0
     12     12  H       11   1.092760(    11)      7  105.896(    25)      1  -72.029(    38)      0
     13     13  H       11   1.097358(    12)      7  113.243(    26)      1  168.920(    39)      0
     14     14  C       11   1.539600(    13)      7  104.403(    27)      1   46.201(    40)      0
     15     15  H       14   1.096826(    14)     11  109.277(    28)      7   78.425(    41)      0
     16     16  H       14   1.094121(    15)     11  110.694(    29)      7 -164.522(    42)      0
 ---------------------------------------------------------------------------------------------------
                         Z-Matrix orientation:                         
 ---------------------------------------------------------------------
 Center     Atomic      Atomic             Coordinates (Angstroms)
 Number     Number       Type             X           Y           Z
 ---------------------------------------------------------------------
      1          6           0        0.000000    0.000000    0.000000
      2          6           0        0.000000    0.000000    1.258123
      3          1           0        0.720644    0.000000    2.059137
      4          6           0        0.483578    0.179927   -1.395883
      5          1           0        1.370986    0.824280   -1.372253
      6          1           0        0.812401   -0.778847   -1.816386
      7          7           0       -1.945175    0.186018   -0.433128
      8          8           0       -2.468466    0.459998    0.758832
      9          1           0       -1.570370    0.274484    1.350988
     10          1           0       -2.366420   -0.659968   -0.817621
     11          6           0       -1.791489    1.261939   -1.405759
     12          1           0       -1.537299    2.153834   -0.827802
     13          1           0       -2.705990    1.461994   -1.978350
     14          6           0       -0.624031    0.805987   -2.299917
     15          1           0       -0.987064    0.059274   -3.016614
     16          1           0       -0.239111    1.643128   -2.889945
 ---------------------------------------------------------------------
                    Distance matrix (angstroms):
                    1          2          3          4          5
     1  C    0.000000
     2  C    1.258123   0.000000
     3  H    2.181599   1.077475   0.000000
     4  C    1.488191   2.703696   3.467815   0.000000
     5  H    2.107634   3.078623   3.588429   1.096924   0.000000
     6  H    2.136786   3.274019   3.954075   1.097358   1.754790
     7  N    2.001477   2.584306   3.654118   2.612619   3.505176
     8  O    2.623119   2.560120   3.474596   3.665488   4.406316
     9  H    2.089634   1.596881   2.413620   3.431172   4.045973
    10  H    2.589209   3.216242   4.270979   3.026929   4.059410
    11  C    2.603475   3.449375   4.461929   2.519281   3.192791
    12  H    2.772642   3.369477   4.251085   2.881487   3.243803
    13  H    3.657004   4.464814   5.493683   3.486589   4.170823
    14  C    2.515680   3.701173   4.632399   1.560777   2.200224
    15  H    3.174550   4.387617   5.355654   2.191829   2.974820
    16  H    3.332991   4.468055   5.302303   2.212568   2.359303
                    6          7          8          9         10
     6  H    0.000000
     7  N    3.232428   0.000000
     8  O    4.350928   1.330288   0.000000
     9  H    4.101141   1.825205   1.091623   0.000000
    10  H    3.334151   1.020282   1.936477   2.491940   0.000000
    11  C    3.333715   1.458505   2.405590   2.936599   2.090497
    12  H    3.885743   2.048031   2.500712   2.877530   2.933433
    13  H    4.174526   2.143517   2.924479   3.712722   2.442401
    14  C    2.192906   2.369533   3.588537   3.808827   2.717010
    15  H    2.319713   2.758340   4.075429   4.411633   2.693603
    16  H    2.850292   3.327127   4.436598   4.650909   3.758220
                   11         12         13         14         15
    11  C    0.000000
    12  H    1.092760   0.000000
    13  H    1.097358   1.779956   0.000000
    14  C    1.539600   2.194965   2.206424   0.000000
    15  H    2.165260   3.079097   2.449555   1.096826   0.000000
    16  H    2.181282   2.489688   2.636154   1.094121   1.756152
                   16
    16  H    0.000000
 Symmetry turned off by external request.
 Stoichiometry    C5H9NO
 Framework group  C1[X(C5H9NO)]
 Deg. of freedom    42
 Full point group                 C1      NOp   1
 Rotational constants (GHZ):      3.6826486      2.8734511      1.7582965
 Standard basis: 6-31G(d) (6D, 7F)
   123 basis functions,   232 primitive gaussians,   123 cartesian basis functions
    27 alpha electrons       27 beta electrons
       nuclear repulsion energy       311.3418820132 Hartrees.
 NAtoms=   16 NActive=   16 NUniq=   16 SFac= 1.00D+00 NAtFMM=   60 NAOKFM=F Big=F
 Integral buffers will be    262144 words long.
 Raffenetti 2 integral format.
 Two-electron integral symmetry is turned off.
 One-electron integrals computed using PRISM.
 NBasis=   123 RedAO= T EigKep=  1.38D-03  NBF=   123
 NBsUse=   123 1.00D-06 EigRej= -1.00D+00 NBFU=   123
 Initial guess from the checkpoint file:  "TS-4F.chk"
 B after Tr=     0.001056   -0.000264   -0.002191
         Rot=    1.000000   -0.000128    0.000233   -0.000179 Ang=  -0.04 deg.
 ExpMin= 1.61D-01 ExpMax= 5.48D+03 ExpMxC= 8.25D+02 IAcc=1 IRadAn=         1 AccDes= 0.00D+00
 Harris functional with IExCor=  402 and IRadAn=       1 diagonalized for initial guess.
 HarFok:  IExCor=  402 AccDes= 0.00D+00 IRadAn=         1 IDoV= 1 UseB2=F ITyADJ=14
 ICtDFT=  3500011 ScaDFX=  1.000000  1.000000  1.000000  1.000000
 FoFCou: FMM=F IPFlag=           0 FMFlag=      100000 FMFlg1=           0
         NFxFlg=           0 DoJE=T BraDBF=F KetDBF=T FulRan=T
         wScrn=  0.000000 ICntrl=     500 IOpCl=  0 I1Cent=   200000004 NGrid=           0
         NMat0=    1 NMatS0=      1 NMatT0=    0 NMatD0=    1 NMtDS0=    0 NMtDT0=    0
 Symmetry not used in FoFCou.
 Keep R1 ints in memory in canonical form, NReq=30092632.
 Requested convergence on RMS density matrix=1.00D-08 within 128 cycles.
 Requested convergence on MAX density matrix=1.00D-06.
 Requested convergence on             energy=1.00D-06.
 No special actions if energy rises.
 Integral accuracy reduced to 1.0D-05 until final iterations.
 Initial convergence to 1.0D-05 achieved.  Increase integral accuracy.
 SCF Done:  E(RB3LYP) =  -325.751172372     A.U. after   11 cycles
            NFock= 11  Conv=0.53D-08     -V/T= 2.0091
 Variable Step   Value    
 -------- ---- -----------
     7       4    2.494983
     8       0    2.062869
 ---------------------------------------------------------------------------------------------------
                            Z-MATRIX (ANGSTROMS AND DEGREES)
   CD    Cent   Atom    N1       Length/X        N2       Alpha/Y        N3        Beta/Z          J
 ---------------------------------------------------------------------------------------------------
      1      1  C 
      2      2  C        1   1.258123(     1)
      3      3  H        2   1.077475(     2)      1  138.023(    16)
      4      4  C        1   1.488191(     3)      2  159.714(    17)      3  -20.409(    30)      0
      5      5  H        4   1.096924(     4)      1  108.282(    18)      2  -16.421(    31)      0
      6      6  H        4   1.097358(     5)      1  110.558(    19)      2   99.542(    32)      0
      7      7  N        1   2.001477(     6)      2  102.498(    20)      4 -154.128(    33)      0
      8      8  O        7   1.320288(     7)      1  101.978(    21)      2    9.864(    34)      0
      9      9  H        8   1.091623(     8)      7   97.320(    22)      1   -8.656(    35)      0
     10     10  H        7   1.020282(     9)      1  113.938(    23)      2 -108.900(    36)      0
     11     11  C        7   1.458505(    10)      1   96.342(    24)      2  131.500(    37)      0
     12     12  H       11   1.092760(    11)      7  105.896(    25)      1  -72.029(    38)      0
     13     13  H       11   1.097358(    12)      7  113.243(    26)      1  168.920(    39)      0
     14     14  C       11   1.539600(    13)      7  104.403(    27)      1   46.201(    40)      0
     15     15  H       14   1.096826(    14)     11  109.277(    28)      7   78.425(    41)      0
     16     16  H       14   1.094121(    15)     11  110.694(    29)      7 -164.522(    42)      0
 ---------------------------------------------------------------------------------------------------
                         Z-Matrix orientation:                         
 ---------------------------------------------------------------------
 Center     Atomic      Atomic             Coordinates (Angstroms)
 Number     Number       Type             X           Y           Z
 ---------------------------------------------------------------------
      1          6           0        0.000000    0.000000    0.000000
      2          6           0        0.000000    0.000000    1.258123
      3          1           0        0.720644    0.000000    2.059137
      4          6           0        0.483578    0.179927   -1.395883
      5          1           0        1.370986    0.824280   -1.372253
      6          1           0        0.812401   -0.778847   -1.816386
      7          7           0       -1.945175    0.186018   -0.433128
      8          8           0       -2.464533    0.457939    0.749872
      9          1           0       -1.566436    0.272424    1.342028
     10          1           0       -2.366420   -0.659968   -0.817621
     11          6           0       -1.791489    1.261939   -1.405759
     12          1           0       -1.537299    2.153834   -0.827802
     13          1           0       -2.705990    1.461994   -1.978350
     14          6           0       -0.624031    0.805987   -2.299917
     15          1           0       -0.987064    0.059274   -3.016614
     16          1           0       -0.239111    1.643128   -2.889945
 ---------------------------------------------------------------------
                    Distance matrix (angstroms):
                    1          2          3          4          5
     1  C    0.000000
     2  C    1.258123   0.000000
     3  H    2.181599   1.077475   0.000000
     4  C    1.488191   2.703696   3.467815   0.000000
     5  H    2.107634   3.078623   3.588429   1.096924   0.000000
     6  H    2.136786   3.274019   3.954075   1.097358   1.754790
     7  N    2.001477   2.584306   3.654118   2.612619   3.505176
     8  O    2.616474   2.557723   3.474080   3.656899   4.398730
     9  H    2.080619   1.592161   2.412301   3.421589   4.037365
    10  H    2.589209   3.216242   4.270979   3.026929   4.059410
    11  C    2.603475   3.449375   4.461929   2.519281   3.192791
    12  H    2.772642   3.369477   4.251085   2.881487   3.243803
    13  H    3.657004   4.464814   5.493683   3.486589   4.170823
    14  C    2.515680   3.701173   4.632399   1.560777   2.200224
    15  H    3.174550   4.387617   5.355654   2.191829   2.974820
    16  H    3.332991   4.468055   5.302303   2.212568   2.359303
                    6          7          8          9         10
     6  H    0.000000
     7  N    3.232428   0.000000
     8  O    4.342074   1.320288   0.000000
     9  H    4.091407   1.817164   1.091623   0.000000
    10  H    3.334151   1.020282   1.927791   2.484636   0.000000
    11  C    3.333715   1.458505   2.397113   2.929184   2.090497
    12  H    3.885743   2.048031   2.494971   2.872058   2.933433
    13  H    4.174526   2.143517   2.917126   3.706557   2.442401
    14  C    2.192906   2.369533   3.579078   3.799550   2.717010
    15  H    2.319713   2.758340   4.065497   4.402143   2.693603
    16  H    2.850292   3.327127   4.427804   4.642221   3.758220
                   11         12         13         14         15
    11  C    0.000000
    12  H    1.092760   0.000000
    13  H    1.097358   1.779956   0.000000
    14  C    1.539600   2.194965   2.206424   0.000000
    15  H    2.165260   3.079097   2.449555   1.096826   0.000000
    16  H    2.181282   2.489688   2.636154   1.094121   1.756152
                   16
    16  H    0.000000
 Symmetry turned off by external request.
 Stoichiometry    C5H9NO
 Framework group  C1[X(C5H9NO)]
 Deg. of freedom    42
 Full point group                 C1      NOp   1
 Rotational constants (GHZ):      3.6837606      2.8824223      1.7618854
 Standard basis: 6-31G(d) (6D, 7F)
   123 basis functions,   232 primitive gaussians,   123 cartesian basis functions
    27 alpha electrons       27 beta electrons
       nuclear repulsion energy       311.6736763340 Hartrees.
 NAtoms=   16 NActive=   16 NUniq=   16 SFac= 1.00D+00 NAtFMM=   60 NAOKFM=F Big=F
 Integral buffers will be    262144 words long.
 Raffenetti 2 integral format.
 Two-electron integral symmetry is turned off.
 One-electron integrals computed using PRISM.
 NBasis=   123 RedAO= T EigKep=  1.38D-03  NBF=   123
 NBsUse=   123 1.00D-06 EigRej= -1.00D+00 NBFU=   123
 Initial guess from the checkpoint file:  "TS-4F.chk"
 B after Tr=     0.001054   -0.000264   -0.002190
         Rot=    1.000000   -0.000128    0.000234   -0.000180 Ang=  -0.04 deg.
 ExpMin= 1.61D-01 ExpMax= 5.48D+03 ExpMxC= 8.25D+02 IAcc=1 IRadAn=         1 AccDes= 0.00D+00
 Harris functional with IExCor=  402 and IRadAn=       1 diagonalized for initial guess.
 HarFok:  IExCor=  402 AccDes= 0.00D+00 IRadAn=         1 IDoV= 1 UseB2=F ITyADJ=14
 ICtDFT=  3500011 ScaDFX=  1.000000  1.000000  1.000000  1.000000
 FoFCou: FMM=F IPFlag=           0 FMFlag=      100000 FMFlg1=           0
         NFxFlg=           0 DoJE=T BraDBF=F KetDBF=T FulRan=T
         wScrn=  0.000000 ICntrl=     500 IOpCl=  0 I1Cent=   200000004 NGrid=           0
         NMat0=    1 NMatS0=      1 NMatT0=    0 NMatD0=    1 NMtDS0=    0 NMtDT0=    0
 Symmetry not used in FoFCou.
 Keep R1 ints in memory in canonical form, NReq=30092632.
 Requested convergence on RMS density matrix=1.00D-08 within 128 cycles.
 Requested convergence on MAX density matrix=1.00D-06.
 Requested convergence on             energy=1.00D-06.
 No special actions if energy rises.
 Integral accuracy reduced to 1.0D-05 until final iterations.
 Initial convergence to 1.0D-05 achieved.  Increase integral accuracy.
 SCF Done:  E(RB3LYP) =  -325.750559843     A.U. after   11 cycles
            NFock= 11  Conv=0.53D-08     -V/T= 2.0091
 Variable Step   Value    
 -------- ---- -----------
     7       5    2.476086
     8       0    2.062869
 ---------------------------------------------------------------------------------------------------
                            Z-MATRIX (ANGSTROMS AND DEGREES)
   CD    Cent   Atom    N1       Length/X        N2       Alpha/Y        N3        Beta/Z          J
 ---------------------------------------------------------------------------------------------------
      1      1  C 
      2      2  C        1   1.258123(     1)
      3      3  H        2   1.077475(     2)      1  138.023(    16)
      4      4  C        1   1.488191(     3)      2  159.714(    17)      3  -20.409(    30)      0
      5      5  H        4   1.096924(     4)      1  108.282(    18)      2  -16.421(    31)      0
      6      6  H        4   1.097358(     5)      1  110.558(    19)      2   99.542(    32)      0
      7      7  N        1   2.001477(     6)      2  102.498(    20)      4 -154.128(    33)      0
      8      8  O        7   1.310288(     7)      1  101.978(    21)      2    9.864(    34)      0
      9      9  H        8   1.091623(     8)      7   97.320(    22)      1   -8.656(    35)      0
     10     10  H        7   1.020282(     9)      1  113.938(    23)      2 -108.900(    36)      0
     11     11  C        7   1.458505(    10)      1   96.342(    24)      2  131.500(    37)      0
     12     12  H       11   1.092760(    11)      7  105.896(    25)      1  -72.029(    38)      0
     13     13  H       11   1.097358(    12)      7  113.243(    26)      1  168.920(    39)      0
     14     14  C       11   1.539600(    13)      7  104.403(    27)      1   46.201(    40)      0
     15     15  H       14   1.096826(    14)     11  109.277(    28)      7   78.425(    41)      0
     16     16  H       14   1.094121(    15)     11  110.694(    29)      7 -164.522(    42)      0
 ---------------------------------------------------------------------------------------------------
                         Z-Matrix orientation:                         
 ---------------------------------------------------------------------
 Center     Atomic      Atomic             Coordinates (Angstroms)
 Number     Number       Type             X           Y           Z
 ---------------------------------------------------------------------
      1          6           0        0.000000    0.000000    0.000000
      2          6           0        0.000000    0.000000    1.258123
      3          1           0        0.720644    0.000000    2.059137
      4          6           0        0.483578    0.179927   -1.395883
      5          1           0        1.370986    0.824280   -1.372253
      6          1           0        0.812401   -0.778847   -1.816386
      7          7           0       -1.945175    0.186018   -0.433128
      8          8           0       -2.460599    0.455879    0.740912
      9          1           0       -1.562503    0.270365    1.333068
     10          1           0       -2.366420   -0.659968   -0.817621
     11          6           0       -1.791489    1.261939   -1.405759
     12          1           0       -1.537299    2.153834   -0.827802
     13          1           0       -2.705990    1.461994   -1.978350
     14          6           0       -0.624031    0.805987   -2.299917
     15          1           0       -0.987064    0.059274   -3.016614
     16          1           0       -0.239111    1.643128   -2.889945
 ---------------------------------------------------------------------
                    Distance matrix (angstroms):
                    1          2          3          4          5
     1  C    0.000000
     2  C    1.258123   0.000000
     3  H    2.181599   1.077475   0.000000
     4  C    1.488191   2.703696   3.467815   0.000000
     5  H    2.107634   3.078623   3.588429   1.096924   0.000000
     6  H    2.136786   3.274019   3.954075   1.097358   1.754790
     7  N    2.001477   2.584306   3.654118   2.612619   3.505176
     8  O    2.609851   2.555363   3.473593   3.648317   4.391153
     9  H    2.071613   1.587491   2.411023   3.412008   4.028764
    10  H    2.589209   3.216242   4.270979   3.026929   4.059410
    11  C    2.603475   3.449375   4.461929   2.519281   3.192791
    12  H    2.772642   3.369477   4.251085   2.881487   3.243803
    13  H    3.657004   4.464814   5.493683   3.486589   4.170823
    14  C    2.515680   3.701173   4.632399   1.560777   2.200224
    15  H    3.174550   4.387617   5.355654   2.191829   2.974820
    16  H    3.332991   4.468055   5.302303   2.212568   2.359303
                    6          7          8          9         10
     6  H    0.000000
     7  N    3.232428   0.000000
     8  O    4.333226   1.310288   0.000000
     9  H    4.081675   1.809143   1.091623   0.000000
    10  H    3.334151   1.020282   1.919117   2.477351   0.000000
    11  C    3.333715   1.458505   2.388648   2.921785   2.090497
    12  H    3.885743   2.048031   2.489257   2.866610   2.933433
    13  H    4.174526   2.143517   2.909788   3.700409   2.442401
    14  C    2.192906   2.369533   3.569622   3.790277   2.717010
    15  H    2.319713   2.758340   4.055564   4.392655   2.693603
    16  H    2.850292   3.327127   4.419015   4.633539   3.758220
                   11         12         13         14         15
    11  C    0.000000
    12  H    1.092760   0.000000
    13  H    1.097358   1.779956   0.000000
    14  C    1.539600   2.194965   2.206424   0.000000
    15  H    2.165260   3.079097   2.449555   1.096826   0.000000
    16  H    2.181282   2.489688   2.636154   1.094121   1.756152
                   16
    16  H    0.000000
 Symmetry turned off by external request.
 Stoichiometry    C5H9NO
 Framework group  C1[X(C5H9NO)]
 Deg. of freedom    42
 Full point group                 C1      NOp   1
 Rotational constants (GHZ):      3.6849144      2.8913758      1.7654723
 Standard basis: 6-31G(d) (6D, 7F)
   123 basis functions,   232 primitive gaussians,   123 cartesian basis functions
    27 alpha electrons       27 beta electrons
       nuclear repulsion energy       312.0085534866 Hartrees.
 NAtoms=   16 NActive=   16 NUniq=   16 SFac= 1.00D+00 NAtFMM=   60 NAOKFM=F Big=F
 Integral buffers will be    262144 words long.
 Raffenetti 2 integral format.
 Two-electron integral symmetry is turned off.
 One-electron integrals computed using PRISM.
 NBasis=   123 RedAO= T EigKep=  1.37D-03  NBF=   123
 NBsUse=   123 1.00D-06 EigRej= -1.00D+00 NBFU=   123
 Initial guess from the checkpoint file:  "TS-4F.chk"
 B after Tr=     0.001052   -0.000264   -0.002189
         Rot=    1.000000   -0.000129    0.000235   -0.000181 Ang=  -0.04 deg.
 ExpMin= 1.61D-01 ExpMax= 5.48D+03 ExpMxC= 8.25D+02 IAcc=1 IRadAn=         1 AccDes= 0.00D+00
 Harris functional with IExCor=  402 and IRadAn=       1 diagonalized for initial guess.
 HarFok:  IExCor=  402 AccDes= 0.00D+00 IRadAn=         1 IDoV= 1 UseB2=F ITyADJ=14
 ICtDFT=  3500011 ScaDFX=  1.000000  1.000000  1.000000  1.000000
 FoFCou: FMM=F IPFlag=           0 FMFlag=      100000 FMFlg1=           0
         NFxFlg=           0 DoJE=T BraDBF=F KetDBF=T FulRan=T
         wScrn=  0.000000 ICntrl=     500 IOpCl=  0 I1Cent=   200000004 NGrid=           0
         NMat0=    1 NMatS0=      1 NMatT0=    0 NMatD0=    1 NMtDS0=    0 NMtDT0=    0
 Symmetry not used in FoFCou.
 Keep R1 ints in memory in canonical form, NReq=30092632.
 Requested convergence on RMS density matrix=1.00D-08 within 128 cycles.
 Requested convergence on MAX density matrix=1.00D-06.
 Requested convergence on             energy=1.00D-06.
 No special actions if energy rises.
 Integral accuracy reduced to 1.0D-05 until final iterations.
 Initial convergence to 1.0D-05 achieved.  Increase integral accuracy.
 SCF Done:  E(RB3LYP) =  -325.749747874     A.U. after   11 cycles
            NFock= 11  Conv=0.53D-08     -V/T= 2.0090
 Variable Step   Value    
 -------- ---- -----------
     7       6    2.457189
     8       0    2.062869
 ---------------------------------------------------------------------------------------------------
                            Z-MATRIX (ANGSTROMS AND DEGREES)
   CD    Cent   Atom    N1       Length/X        N2       Alpha/Y        N3        Beta/Z          J
 ---------------------------------------------------------------------------------------------------
      1      1  C 
      2      2  C        1   1.258123(     1)
      3      3  H        2   1.077475(     2)      1  138.023(    16)
      4      4  C        1   1.488191(     3)      2  159.714(    17)      3  -20.409(    30)      0
      5      5  H        4   1.096924(     4)      1  108.282(    18)      2  -16.421(    31)      0
      6      6  H        4   1.097358(     5)      1  110.558(    19)      2   99.542(    32)      0
      7      7  N        1   2.001477(     6)      2  102.498(    20)      4 -154.128(    33)      0
      8      8  O        7   1.300288(     7)      1  101.978(    21)      2    9.864(    34)      0
      9      9  H        8   1.091623(     8)      7   97.320(    22)      1   -8.656(    35)      0
     10     10  H        7   1.020282(     9)      1  113.938(    23)      2 -108.900(    36)      0
     11     11  C        7   1.458505(    10)      1   96.342(    24)      2  131.500(    37)      0
     12     12  H       11   1.092760(    11)      7  105.896(    25)      1  -72.029(    38)      0
     13     13  H       11   1.097358(    12)      7  113.243(    26)      1  168.920(    39)      0
     14     14  C       11   1.539600(    13)      7  104.403(    27)      1   46.201(    40)      0
     15     15  H       14   1.096826(    14)     11  109.277(    28)      7   78.425(    41)      0
     16     16  H       14   1.094121(    15)     11  110.694(    29)      7 -164.522(    42)      0
 ---------------------------------------------------------------------------------------------------
                         Z-Matrix orientation:                         
 ---------------------------------------------------------------------
 Center     Atomic      Atomic             Coordinates (Angstroms)
 Number     Number       Type             X           Y           Z
 ---------------------------------------------------------------------
      1          6           0        0.000000    0.000000    0.000000
      2          6           0        0.000000    0.000000    1.258123
      3          1           0        0.720644    0.000000    2.059137
      4          6           0        0.483578    0.179927   -1.395883
      5          1           0        1.370986    0.824280   -1.372253
      6          1           0        0.812401   -0.778847   -1.816386
      7          7           0       -1.945175    0.186018   -0.433128
      8          8           0       -2.456665    0.453819    0.731952
      9          1           0       -1.558569    0.268305    1.324108
     10          1           0       -2.366420   -0.659968   -0.817621
     11          6           0       -1.791489    1.261939   -1.405759
     12          1           0       -1.537299    2.153834   -0.827802
     13          1           0       -2.705990    1.461994   -1.978350
     14          6           0       -0.624031    0.805987   -2.299917
     15          1           0       -0.987064    0.059274   -3.016614
     16          1           0       -0.239111    1.643128   -2.889945
 ---------------------------------------------------------------------
                    Distance matrix (angstroms):
                    1          2          3          4          5
     1  C    0.000000
     2  C    1.258123   0.000000
     3  H    2.181599   1.077475   0.000000
     4  C    1.488191   2.703696   3.467815   0.000000
     5  H    2.107634   3.078623   3.588429   1.096924   0.000000
     6  H    2.136786   3.274019   3.954075   1.097358   1.754790
     7  N    2.001477   2.584306   3.654118   2.612619   3.505176
     8  O    2.603250   2.553040   3.473135   3.639743   4.383587
     9  H    2.062616   1.582871   2.409786   3.402429   4.020169
    10  H    2.589209   3.216242   4.270979   3.026929   4.059410
    11  C    2.603475   3.449375   4.461929   2.519281   3.192791
    12  H    2.772642   3.369477   4.251085   2.881487   3.243803
    13  H    3.657004   4.464814   5.493683   3.486589   4.170823
    14  C    2.515680   3.701173   4.632399   1.560777   2.200224
    15  H    3.174550   4.387617   5.355654   2.191829   2.974820
    16  H    3.332991   4.468055   5.302303   2.212568   2.359303
                    6          7          8          9         10
     6  H    0.000000
     7  N    3.232428   0.000000
     8  O    4.324382   1.300288   0.000000
     9  H    4.071944   1.801142   1.091623   0.000000
    10  H    3.334151   1.020282   1.910457   2.470084   0.000000
    11  C    3.333715   1.458505   2.380194   2.914401   2.090497
    12  H    3.885743   2.048031   2.483569   2.861186   2.933433
    13  H    4.174526   2.143517   2.902467   3.694278   2.442401
    14  C    2.192906   2.369533   3.560169   3.781008   2.717010
    15  H    2.319713   2.758340   4.045632   4.383169   2.693603
    16  H    2.850292   3.327127   4.410231   4.624862   3.758220
                   11         12         13         14         15
    11  C    0.000000
    12  H    1.092760   0.000000
    13  H    1.097358   1.779956   0.000000
    14  C    1.539600   2.194965   2.206424   0.000000
    15  H    2.165260   3.079097   2.449555   1.096826   0.000000
    16  H    2.181282   2.489688   2.636154   1.094121   1.756152
                   16
    16  H    0.000000
 Symmetry turned off by external request.
 Stoichiometry    C5H9NO
 Framework group  C1[X(C5H9NO)]
 Deg. of freedom    42
 Full point group                 C1      NOp   1
 Rotational constants (GHZ):      3.6861116      2.9003098      1.7690572
 Standard basis: 6-31G(d) (6D, 7F)
   123 basis functions,   232 primitive gaussians,   123 cartesian basis functions
    27 alpha electrons       27 beta electrons
       nuclear repulsion energy       312.3465728026 Hartrees.
 NAtoms=   16 NActive=   16 NUniq=   16 SFac= 1.00D+00 NAtFMM=   60 NAOKFM=F Big=F
 Integral buffers will be    262144 words long.
 Raffenetti 2 integral format.
 Two-electron integral symmetry is turned off.
 One-electron integrals computed using PRISM.
 NBasis=   123 RedAO= T EigKep=  1.37D-03  NBF=   123
 NBsUse=   123 1.00D-06 EigRej= -1.00D+00 NBFU=   123
 Initial guess from the checkpoint file:  "TS-4F.chk"
 B after Tr=     0.001050   -0.000264   -0.002188
         Rot=    1.000000   -0.000129    0.000235   -0.000181 Ang=  -0.04 deg.
 ExpMin= 1.61D-01 ExpMax= 5.48D+03 ExpMxC= 8.25D+02 IAcc=1 IRadAn=         1 AccDes= 0.00D+00
 Harris functional with IExCor=  402 and IRadAn=       1 diagonalized for initial guess.
 HarFok:  IExCor=  402 AccDes= 0.00D+00 IRadAn=         1 IDoV= 1 UseB2=F ITyADJ=14
 ICtDFT=  3500011 ScaDFX=  1.000000  1.000000  1.000000  1.000000
 FoFCou: FMM=F IPFlag=           0 FMFlag=      100000 FMFlg1=           0
         NFxFlg=           0 DoJE=T BraDBF=F KetDBF=T FulRan=T
         wScrn=  0.000000 ICntrl=     500 IOpCl=  0 I1Cent=   200000004 NGrid=           0
         NMat0=    1 NMatS0=      1 NMatT0=    0 NMatD0=    1 NMtDS0=    0 NMtDT0=    0
 Symmetry not used in FoFCou.
 Keep R1 ints in memory in canonical form, NReq=30092632.
 Requested convergence on RMS density matrix=1.00D-08 within 128 cycles.
 Requested convergence on MAX density matrix=1.00D-06.
 Requested convergence on             energy=1.00D-06.
 No special actions if energy rises.
 Integral accuracy reduced to 1.0D-05 until final iterations.
 Initial convergence to 1.0D-05 achieved.  Increase integral accuracy.
 SCF Done:  E(RB3LYP) =  -325.748724317     A.U. after   11 cycles
            NFock= 11  Conv=0.54D-08     -V/T= 2.0089
 Variable Step   Value    
 -------- ---- -----------
     7       7    2.438292
     8       0    2.062869
 ---------------------------------------------------------------------------------------------------
                            Z-MATRIX (ANGSTROMS AND DEGREES)
   CD    Cent   Atom    N1       Length/X        N2       Alpha/Y        N3        Beta/Z          J
 ---------------------------------------------------------------------------------------------------
      1      1  C 
      2      2  C        1   1.258123(     1)
      3      3  H        2   1.077475(     2)      1  138.023(    16)
      4      4  C        1   1.488191(     3)      2  159.714(    17)      3  -20.409(    30)      0
      5      5  H        4   1.096924(     4)      1  108.282(    18)      2  -16.421(    31)      0
      6      6  H        4   1.097358(     5)      1  110.558(    19)      2   99.542(    32)      0
      7      7  N        1   2.001477(     6)      2  102.498(    20)      4 -154.128(    33)      0
      8      8  O        7   1.290288(     7)      1  101.978(    21)      2    9.864(    34)      0
      9      9  H        8   1.091623(     8)      7   97.320(    22)      1   -8.656(    35)      0
     10     10  H        7   1.020282(     9)      1  113.938(    23)      2 -108.900(    36)      0
     11     11  C        7   1.458505(    10)      1   96.342(    24)      2  131.500(    37)      0
     12     12  H       11   1.092760(    11)      7  105.896(    25)      1  -72.029(    38)      0
     13     13  H       11   1.097358(    12)      7  113.243(    26)      1  168.920(    39)      0
     14     14  C       11   1.539600(    13)      7  104.403(    27)      1   46.201(    40)      0
     15     15  H       14   1.096826(    14)     11  109.277(    28)      7   78.425(    41)      0
     16     16  H       14   1.094121(    15)     11  110.694(    29)      7 -164.522(    42)      0
 ---------------------------------------------------------------------------------------------------
                         Z-Matrix orientation:                         
 ---------------------------------------------------------------------
 Center     Atomic      Atomic             Coordinates (Angstroms)
 Number     Number       Type             X           Y           Z
 ---------------------------------------------------------------------
      1          6           0        0.000000    0.000000    0.000000
      2          6           0        0.000000    0.000000    1.258123
      3          1           0        0.720644    0.000000    2.059137
      4          6           0        0.483578    0.179927   -1.395883
      5          1           0        1.370986    0.824280   -1.372253
      6          1           0        0.812401   -0.778847   -1.816386
      7          7           0       -1.945175    0.186018   -0.433128
      8          8           0       -2.452732    0.451760    0.722992
      9          1           0       -1.554635    0.266245    1.315147
     10          1           0       -2.366420   -0.659968   -0.817621
     11          6           0       -1.791489    1.261939   -1.405759
     12          1           0       -1.537299    2.153834   -0.827802
     13          1           0       -2.705990    1.461994   -1.978350
     14          6           0       -0.624031    0.805987   -2.299917
     15          1           0       -0.987064    0.059274   -3.016614
     16          1           0       -0.239111    1.643128   -2.889945
 ---------------------------------------------------------------------
                    Distance matrix (angstroms):
                    1          2          3          4          5
     1  C    0.000000
     2  C    1.258123   0.000000
     3  H    2.181599   1.077475   0.000000
     4  C    1.488191   2.703696   3.467815   0.000000
     5  H    2.107634   3.078623   3.588429   1.096924   0.000000
     6  H    2.136786   3.274019   3.954075   1.097358   1.754790
     7  N    2.001477   2.584306   3.654118   2.612619   3.505176
     8  O    2.596670   2.550754   3.472706   3.631176   4.376030
     9  H    2.053629   1.578300   2.408590   3.392853   4.011581
    10  H    2.589209   3.216242   4.270979   3.026929   4.059410
    11  C    2.603475   3.449375   4.461929   2.519281   3.192791
    12  H    2.772642   3.369477   4.251085   2.881487   3.243803
    13  H    3.657004   4.464814   5.493683   3.486589   4.170823
    14  C    2.515680   3.701173   4.632399   1.560777   2.200224
    15  H    3.174550   4.387617   5.355654   2.191829   2.974820
    16  H    3.332991   4.468055   5.302303   2.212568   2.359303
                    6          7          8          9         10
     6  H    0.000000
     7  N    3.232428   0.000000
     8  O    4.315544   1.290288   0.000000
     9  H    4.062214   1.793160   1.091623   0.000000
    10  H    3.334151   1.020282   1.901809   2.462838   0.000000
    11  C    3.333715   1.458505   2.371753   2.907032   2.090497
    12  H    3.885743   2.048031   2.477909   2.855788   2.933433
    13  H    4.174526   2.143517   2.895161   3.688164   2.442401
    14  C    2.192906   2.369533   3.550718   3.771742   2.717010
    15  H    2.319713   2.758340   4.035700   4.373686   2.693603
    16  H    2.850292   3.327127   4.401453   4.616190   3.758220
                   11         12         13         14         15
    11  C    0.000000
    12  H    1.092760   0.000000
    13  H    1.097358   1.779956   0.000000
    14  C    1.539600   2.194965   2.206424   0.000000
    15  H    2.165260   3.079097   2.449555   1.096826   0.000000
    16  H    2.181282   2.489688   2.636154   1.094121   1.756152
                   16
    16  H    0.000000
 Symmetry turned off by external request.
 Stoichiometry    C5H9NO
 Framework group  C1[X(C5H9NO)]
 Deg. of freedom    42
 Full point group                 C1      NOp   1
 Rotational constants (GHZ):      3.6873538      2.9092222      1.7726399
 Standard basis: 6-31G(d) (6D, 7F)
   123 basis functions,   232 primitive gaussians,   123 cartesian basis functions
    27 alpha electrons       27 beta electrons
       nuclear repulsion energy       312.6877954172 Hartrees.
 NAtoms=   16 NActive=   16 NUniq=   16 SFac= 1.00D+00 NAtFMM=   60 NAOKFM=F Big=F
 Integral buffers will be    262144 words long.
 Raffenetti 2 integral format.
 Two-electron integral symmetry is turned off.
 One-electron integrals computed using PRISM.
 NBasis=   123 RedAO= T EigKep=  1.36D-03  NBF=   123
 NBsUse=   123 1.00D-06 EigRej= -1.00D+00 NBFU=   123
 Initial guess from the checkpoint file:  "TS-4F.chk"
 B after Tr=     0.001048   -0.000264   -0.002187
         Rot=    1.000000   -0.000130    0.000236   -0.000182 Ang=  -0.04 deg.
 ExpMin= 1.61D-01 ExpMax= 5.48D+03 ExpMxC= 8.25D+02 IAcc=1 IRadAn=         1 AccDes= 0.00D+00
 Harris functional with IExCor=  402 and IRadAn=       1 diagonalized for initial guess.
 HarFok:  IExCor=  402 AccDes= 0.00D+00 IRadAn=         1 IDoV= 1 UseB2=F ITyADJ=14
 ICtDFT=  3500011 ScaDFX=  1.000000  1.000000  1.000000  1.000000
 FoFCou: FMM=F IPFlag=           0 FMFlag=      100000 FMFlg1=           0
         NFxFlg=           0 DoJE=T BraDBF=F KetDBF=T FulRan=T
         wScrn=  0.000000 ICntrl=     500 IOpCl=  0 I1Cent=   200000004 NGrid=           0
         NMat0=    1 NMatS0=      1 NMatT0=    0 NMatD0=    1 NMtDS0=    0 NMtDT0=    0
 Symmetry not used in FoFCou.
 Keep R1 ints in memory in canonical form, NReq=30092632.
 Requested convergence on RMS density matrix=1.00D-08 within 128 cycles.
 Requested convergence on MAX density matrix=1.00D-06.
 Requested convergence on             energy=1.00D-06.
 No special actions if energy rises.
 Integral accuracy reduced to 1.0D-05 until final iterations.
 Initial convergence to 1.0D-05 achieved.  Increase integral accuracy.
 SCF Done:  E(RB3LYP) =  -325.747476336     A.U. after   11 cycles
            NFock= 11  Conv=0.54D-08     -V/T= 2.0088
 Variable Step   Value    
 -------- ---- -----------
     7       8    2.419394
     8       0    2.062869
 ---------------------------------------------------------------------------------------------------
                            Z-MATRIX (ANGSTROMS AND DEGREES)
   CD    Cent   Atom    N1       Length/X        N2       Alpha/Y        N3        Beta/Z          J
 ---------------------------------------------------------------------------------------------------
      1      1  C 
      2      2  C        1   1.258123(     1)
      3      3  H        2   1.077475(     2)      1  138.023(    16)
      4      4  C        1   1.488191(     3)      2  159.714(    17)      3  -20.409(    30)      0
      5      5  H        4   1.096924(     4)      1  108.282(    18)      2  -16.421(    31)      0
      6      6  H        4   1.097358(     5)      1  110.558(    19)      2   99.542(    32)      0
      7      7  N        1   2.001477(     6)      2  102.498(    20)      4 -154.128(    33)      0
      8      8  O        7   1.280288(     7)      1  101.978(    21)      2    9.864(    34)      0
      9      9  H        8   1.091623(     8)      7   97.320(    22)      1   -8.656(    35)      0
     10     10  H        7   1.020282(     9)      1  113.938(    23)      2 -108.900(    36)      0
[...]
    16  H    2.181282   2.489688   2.636154   1.094121   1.756152
                   16
    16  H    0.000000
 Symmetry turned off by external request.
 Stoichiometry    C5H9NO
 Framework group  C1[X(C5H9NO)]
 Deg. of freedom    42
 Full point group                 C1      NOp   1
 Rotational constants (GHZ):      3.6894137      2.9252714      1.7790927
 Standard basis: 6-31G(d) (6D, 7F)
   123 basis functions,   232 primitive gaussians,   123 cartesian basis functions
    27 alpha electrons       27 beta electrons
       nuclear repulsion energy       313.0714603445 Hartrees.
 NAtoms=   16 NActive=   16 NUniq=   16 SFac= 1.00D+00 NAtFMM=   60 NAOKFM=F Big=F
 Integral buffers will be    262144 words long.
 Raffenetti 2 integral format.
 Two-electron integral symmetry is turned off.
 One-electron integrals computed using PRISM.
 NBasis=   123 RedAO= T EigKep=  1.35D-03  NBF=   123
 NBsUse=   123 1.00D-06 EigRej= -1.00D+00 NBFU=   123
 Initial guess from the checkpoint file:  "TS-4F.chk"
 B after Tr=     0.001050   -0.000269   -0.002198
         Rot=    1.000000   -0.000132    0.000234   -0.000182 Ang=  -0.04 deg.
 ExpMin= 1.61D-01 ExpMax= 5.48D+03 ExpMxC= 8.25D+02 IAcc=1 IRadAn=         1 AccDes= 0.00D+00
 Harris functional with IExCor=  402 and IRadAn=       1 diagonalized for initial guess.
 HarFok:  IExCor=  402 AccDes= 0.00D+00 IRadAn=         1 IDoV= 1 UseB2=F ITyADJ=14
 ICtDFT=  3500011 ScaDFX=  1.000000  1.000000  1.000000  1.000000
 FoFCou: FMM=F IPFlag=           0 FMFlag=      100000 FMFlg1=           0
         NFxFlg=           0 DoJE=T BraDBF=F KetDBF=T FulRan=T
         wScrn=  0.000000 ICntrl=     500 IOpCl=  0 I1Cent=   200000004 NGrid=           0
         NMat0=    1 NMatS0=      1 NMatT0=    0 NMatD0=    1 NMtDS0=    0 NMtDT0=    0
 Symmetry not used in FoFCou.
 Keep R1 ints in memory in canonical form, NReq=30092632.
 Requested convergence on RMS density matrix=1.00D-08 within 128 cycles.
 Requested convergence on MAX density matrix=1.00D-06.
 Requested convergence on             energy=1.00D-06.
 No special actions if energy rises.
 Integral accuracy reduced to 1.0D-05 until final iterations.
 Initial convergence to 1.0D-05 achieved.  Increase integral accuracy.
 SCF Done:  E(RB3LYP) =  -325.745494109     A.U. after   11 cycles
            NFock= 11  Conv=0.67D-08     -V/T= 2.0088
 Variable Step   Value    
 -------- ---- -----------
     7      10    2.381600
     8      10    2.251841
 ---------------------------------------------------------------------------------------------------
                            Z-MATRIX (ANGSTROMS AND DEGREES)
   CD    Cent   Atom    N1       Length/X        N2       Alpha/Y        N3        Beta/Z          J
 ---------------------------------------------------------------------------------------------------
      1      1  C 
      2      2  C        1   1.258123(     1)
      3      3  H        2   1.077475(     2)      1  138.023(    16)
      4      4  C        1   1.488191(     3)      2  159.714(    17)      3  -20.409(    30)      0
      5      5  H        4   1.096924(     4)      1  108.282(    18)      2  -16.421(    31)      0
      6      6  H        4   1.097358(     5)      1  110.558(    19)      2   99.542(    32)      0
      7      7  N        1   2.001477(     6)      2  102.498(    20)      4 -154.128(    33)      0
      8      8  O        7   1.260288(     7)      1  101.978(    21)      2    9.864(    34)      0
      9      9  H        8   1.191623(     8)      7   97.320(    22)      1   -8.656(    35)      0
     10     10  H        7   1.020282(     9)      1  113.938(    23)      2 -108.900(    36)      0
     11     11  C        7   1.458505(    10)      1   96.342(    24)      2  131.500(    37)      0
     12     12  H       11   1.092760(    11)      7  105.896(    25)      1  -72.029(    38)      0
     13     13  H       11   1.097358(    12)      7  113.243(    26)      1  168.920(    39)      0
     14     14  C       11   1.539600(    13)      7  104.403(    27)      1   46.201(    40)      0
     15     15  H       14   1.096826(    14)     11  109.277(    28)      7   78.425(    41)      0
     16     16  H       14   1.094121(    15)     11  110.694(    29)      7 -164.522(    42)      0
 ---------------------------------------------------------------------------------------------------
                         Z-Matrix orientation:                         
 ---------------------------------------------------------------------
 Center     Atomic      Atomic             Coordinates (Angstroms)
 Number     Number       Type             X           Y           Z
 ---------------------------------------------------------------------
      1          6           0        0.000000    0.000000    0.000000
      2          6           0        0.000000    0.000000    1.258123
      3          1           0        0.720644    0.000000    2.059137
      4          6           0        0.483578    0.179927   -1.395883
      5          1           0        1.370986    0.824280   -1.372253
      6          1           0        0.812401   -0.778847   -1.816386
      7          7           0       -1.945175    0.186018   -0.433128
      8          8           0       -2.440931    0.445581    0.696111
      9          1           0       -1.460563    0.243072    1.342512
     10          1           0       -2.366420   -0.659968   -0.817621
     11          6           0       -1.791489    1.261939   -1.405759
     12          1           0       -1.537299    2.153834   -0.827802
     13          1           0       -2.705990    1.461994   -1.978350
     14          6           0       -0.624031    0.805987   -2.299917
     15          1           0       -0.987064    0.059274   -3.016614
     16          1           0       -0.239111    1.643128   -2.889945
 ---------------------------------------------------------------------
                    Distance matrix (angstroms):
                    1          2          3          4          5
     1  C    0.000000
     2  C    1.258123   0.000000
     3  H    2.181599   1.077475   0.000000
     4  C    1.488191   2.703696   3.467815   0.000000
     5  H    2.107634   3.078623   3.588429   1.096924   0.000000
     6  H    2.136786   3.274019   3.954075   1.097358   1.754790
     7  N    2.001477   2.584306   3.654118   2.612619   3.505176
     8  O    2.577063   2.544119   3.471590   3.605518   4.353418
     9  H    1.998666   1.483054   2.308744   3.358940   3.965529
    10  H    2.589209   3.216242   4.270979   3.026929   4.059410
    11  C    2.603475   3.449375   4.461929   2.519281   3.192791
    12  H    2.772642   3.369477   4.251085   2.881487   3.243803
    13  H    3.657004   4.464814   5.493683   3.486589   4.170823
    14  C    2.515680   3.701173   4.632399   1.560777   2.200224
    15  H    3.174550   4.387617   5.355654   2.191829   2.974820
    16  H    3.332991   4.468055   5.302303   2.212568   2.359303
                    6          7          8          9         10
     6  H    0.000000
     7  N    3.232428   0.000000
     8  O    4.289059   1.260288   0.000000
     9  H    4.023596   1.841467   1.191623   0.000000
    10  H    3.334151   1.020282   1.875947   2.510426   0.000000
    11  C    3.333715   1.458505   2.346502   2.949677   2.090497
    12  H    3.885743   2.048031   2.461095   2.892605   2.933433
    13  H    4.174526   2.143517   2.873342   3.750331   2.442401
    14  C    2.192906   2.369533   3.522386   3.779411   2.717010
    15  H    2.319713   2.758340   4.005907   4.388617   2.693603
    16  H    2.850292   3.327127   4.375149   4.622315   3.758220
                   11         12         13         14         15
    11  C    0.000000
    12  H    1.092760   0.000000
    13  H    1.097358   1.779956   0.000000
    14  C    1.539600   2.194965   2.206424   0.000000
    15  H    2.165260   3.079097   2.449555   1.096826   0.000000
    16  H    2.181282   2.489688   2.636154   1.094121   1.756152
                   16
    16  H    0.000000
 Symmetry turned off by external request.
 Stoichiometry    C5H9NO
 Framework group  C1[X(C5H9NO)]
 Deg. of freedom    42
 Full point group                 C1      NOp   1
 Rotational constants (GHZ):      3.6908501      2.9340708      1.7826666
 Standard basis: 6-31G(d) (6D, 7F)
   123 basis functions,   232 primitive gaussians,   123 cartesian basis functions
    27 alpha electrons       27 beta electrons
       nuclear repulsion energy       313.4229143983 Hartrees.
 NAtoms=   16 NActive=   16 NUniq=   16 SFac= 1.00D+00 NAtFMM=   60 NAOKFM=F Big=F
 Integral buffers will be    262144 words long.
 Raffenetti 2 integral format.
 Two-electron integral symmetry is turned off.
 One-electron integrals computed using PRISM.
 NBasis=   123 RedAO= T EigKep=  1.34D-03  NBF=   123
 NBsUse=   123 1.00D-06 EigRej= -1.00D+00 NBFU=   123
 Initial guess from the checkpoint file:  "TS-4F.chk"
 B after Tr=     0.001048   -0.000269   -0.002197
         Rot=    1.000000   -0.000132    0.000235   -0.000183 Ang=  -0.04 deg.
 ExpMin= 1.61D-01 ExpMax= 5.48D+03 ExpMxC= 8.25D+02 IAcc=1 IRadAn=         1 AccDes= 0.00D+00
 Harris functional with IExCor=  402 and IRadAn=       1 diagonalized for initial guess.
 HarFok:  IExCor=  402 AccDes= 0.00D+00 IRadAn=         1 IDoV= 1 UseB2=F ITyADJ=14
 ICtDFT=  3500011 ScaDFX=  1.000000  1.000000  1.000000  1.000000
 FoFCou: FMM=F IPFlag=           0 FMFlag=      100000 FMFlg1=           0
         NFxFlg=           0 DoJE=T BraDBF=F KetDBF=T FulRan=T
         wScrn=  0.000000 ICntrl=     500 IOpCl=  0 I1Cent=   200000004 NGrid=           0
         NMat0=    1 NMatS0=      1 NMatT0=    0 NMatD0=    1 NMtDS0=    0 NMtDT0=    0
 Symmetry not used in FoFCou.
 Keep R1 ints in memory in canonical form, NReq=30092632.
 Requested convergence on RMS density matrix=1.00D-08 within 128 cycles.
 Requested convergence on MAX density matrix=1.00D-06.
 Requested convergence on             energy=1.00D-06.
 No special actions if energy rises.
 Integral accuracy reduced to 1.0D-05 until final iterations.
 Initial convergence to 1.0D-05 achieved.  Increase integral accuracy.
 SCF Done:  E(RB3LYP) =  -325.743773438     A.U. after   11 cycles
            NFock= 11  Conv=0.51D-08     -V/T= 2.0087
 Scan completed.

 Summary of the potential surface scan:
   N      B7         B8          SCF    
 ----  ---------  ---------  -----------
    1     1.3603     1.0916   -325.75193
    2     1.3503     1.0916   -325.75184
    3     1.3403     1.0916   -325.75160
    4     1.3303     1.0916   -325.75117
    5     1.3203     1.0916   -325.75056
    6     1.3103     1.0916   -325.74975
    7     1.3003     1.0916   -325.74872
    8     1.2903     1.0916   -325.74748
    9     1.2803     1.0916   -325.74599
   10     1.2703     1.0916   -325.74425
   11     1.2603     1.0916   -325.74225
   12     1.3603     1.1016   -325.75191
   13     1.3503     1.1016   -325.75185
   14     1.3403     1.1016   -325.75162
   15     1.3303     1.1016   -325.75122
   16     1.3203     1.1016   -325.75063
   17     1.3103     1.1016   -325.74985
   18     1.3003     1.1016   -325.74885
   19     1.2903     1.1016   -325.74763
   20     1.2803     1.1016   -325.74617
   21     1.2703     1.1016   -325.74446
   22     1.2603     1.1016   -325.74248
   23     1.3603     1.1116   -325.75186
   24     1.3503     1.1116   -325.75182
   25     1.3403     1.1116   -325.75162
   26     1.3303     1.1116   -325.75124
   27     1.3203     1.1116   -325.75068
   28     1.3103     1.1116   -325.74992
   29     1.3003     1.1116   -325.74894
   30     1.2903     1.1116   -325.74775
   31     1.2803     1.1116   -325.74631
   32     1.2703     1.1116   -325.74463
   33     1.2603     1.1116   -325.74268
   34     1.3603     1.1216   -325.75178
   35     1.3503     1.1216   -325.75177
   36     1.3403     1.1216   -325.75159
   37     1.3303     1.1216   -325.75124
   38     1.3203     1.1216   -325.75070
   39     1.3103     1.1216   -325.74996
   40     1.3003     1.1216   -325.74901
   41     1.2903     1.1216   -325.74784
   42     1.2803     1.1216   -325.74644
   43     1.2703     1.1216   -325.74478
   44     1.2603     1.1216   -325.74286
   45     1.3603     1.1316   -325.75168
   46     1.3503     1.1316   -325.75169
   47     1.3403     1.1316   -325.75154
   48     1.3303     1.1316   -325.75121
   49     1.3203     1.1316   -325.75070
   50     1.3103     1.1316   -325.74998
   51     1.3003     1.1316   -325.74906
   52     1.2903     1.1316   -325.74792
   53     1.2803     1.1316   -325.74654
   54     1.2703     1.1316   -325.74491
   55     1.2603     1.1316   -325.74302
   56     1.3603     1.1416   -325.75157
   57     1.3503     1.1416   -325.75160
   58     1.3403     1.1416   -325.75147
   59     1.3303     1.1416   -325.75117
   60     1.3203     1.1416   -325.75068
   61     1.3103     1.1416   -325.74999
   62     1.3003     1.1416   -325.74909
   63     1.2903     1.1416   -325.74798
   64     1.2803     1.1416   -325.74663
   65     1.2703     1.1416   -325.74503
   66     1.2603     1.1416   -325.74316
   67     1.3603     1.1516   -325.75144
   68     1.3503     1.1516   -325.75150
   69     1.3403     1.1516   -325.75139
   70     1.3303     1.1516   -325.75111
   71     1.3203     1.1516   -325.75065
   72     1.3103     1.1516   -325.74999
   73     1.3003     1.1516   -325.74912
   74     1.2903     1.1516   -325.74803
   75     1.2803     1.1516   -325.74670
   76     1.2703     1.1516   -325.74513
   77     1.2603     1.1516   -325.74329
   78     1.3603     1.1616   -325.75130
   79     1.3503     1.1616   -325.75138
   80     1.3403     1.1616   -325.75130
   81     1.3303     1.1616   -325.75105
   82     1.3203     1.1616   -325.75061
   83     1.3103     1.1616   -325.74997
   84     1.3003     1.1616   -325.74913
   85     1.2903     1.1616   -325.74807
   86     1.2803     1.1616   -325.74677
   87     1.2703     1.1616   -325.74523
   88     1.2603     1.1616   -325.74342
   89     1.3603     1.1716   -325.75116
   90     1.3503     1.1716   -325.75126
   91     1.3403     1.1716   -325.75121
   92     1.3303     1.1716   -325.75098
   93     1.3203     1.1716   -325.75056
   94     1.3103     1.1716   -325.74995
   95     1.3003     1.1716   -325.74914
   96     1.2903     1.1716   -325.74810
   97     1.2803     1.1716   -325.74683
   98     1.2703     1.1716   -325.74532
   99     1.2603     1.1716   -325.74354
  100     1.3603     1.1816   -325.75101
  101     1.3503     1.1816   -325.75114
  102     1.3403     1.1816   -325.75111
  103     1.3303     1.1816   -325.75090
  104     1.3203     1.1816   -325.75052
  105     1.3103     1.1816   -325.74993
  106     1.3003     1.1816   -325.74914
  107     1.2903     1.1816   -325.74813
  108     1.2803     1.1816   -325.74689
  109     1.2703     1.1816   -325.74541
  110     1.2603     1.1816   -325.74366
  111     1.3603     1.1916   -325.75086
  112     1.3503     1.1916   -325.75102
  113     1.3403     1.1916   -325.75101
  114     1.3303     1.1916   -325.75083
  115     1.3203     1.1916   -325.75047
  116     1.3103     1.1916   -325.74991
  117     1.3003     1.1916   -325.74915
  118     1.2903     1.1916   -325.74817
  119     1.2803     1.1916   -325.74695
  120     1.2703     1.1916   -325.74549
  121     1.2603     1.1916   -325.74377
 ----  ---------  ---------  -----------
  
 1|1|UNPC-DESKTOP-FDJEK7N|Scan|RB3LYP|6-31G(d)|C5H9N1O1|LIAOY|06-Nov-20
 23|1||# b3lyp/6-31g(d) geom=connectivity scan nosymmetry||title card||
 0,1|C|C,1,B1|H,2,B2,1,A1|C,1,B3,2,A2,3,D1,0|H,4,B4,1,A3,2,D2,0|H,4,B5,
 1,A4,2,D3,0|N,1,B6,2,A5,4,D4,0|O,7,B7,1,A6,2,D5,0|H,8,B8,7,A7,1,D6,0|H
 ,7,B9,1,A8,2,D7,0|C,7,B10,1,A9,2,D8,0|H,11,B11,7,A10,1,D9,0|H,11,B12,7
 ,A11,1,D10,0|C,11,B13,7,A12,1,D11,0|H,14,B14,11,A13,7,D12,0|H,14,B15,1
 1,A14,7,D13,0||B1=1.25812295|B2=1.07747469|B3=1.48819055|B4=1.09692373
 |B5=1.09735812|B6=2.00147692|B7=1.3602883,s,10,-0.01|B8=1.09162304,s,1
 0,0.01|B9=1.02028219|B10=1.45850462|B11=1.09276011|B12=1.0973581|B13=1
 .53960009|B14=1.09682639|B15=1.09412087|A1=138.02343011|A2=159.7139487
 5|A3=108.2819628|A4=110.55840007|A5=102.49791444|A6=101.97829868|A7=97
 .32041903|A8=113.93781729|A9=96.34216254|A10=105.89625753|A11=113.2432
 9926|A12=104.40276045|A13=109.27653137|A14=110.69379485|D1=-20.4090024
 9|D2=-16.4214718|D3=99.5423157|D4=-154.12837698|D5=9.86356459|D6=-8.65
 57963|D7=-108.90032478|D8=131.50034216|D9=-72.02879369|D10=168.9198781
 6|D11=46.20094548|D12=78.4246501|D13=-164.52218707||Version=IA32W-G09R
 evD.01|HF=-325.7519253,-325.7518445,-325.751597,-325.7511724,-325.7505
 598,-325.7497479,-325.7487243,-325.7474763,-325.7459904,-325.744252,-3
 25.7422462,-325.7519073,-325.7518489,-325.7516242,-325.751223,-325.750
 6344,-325.749847,-325.7488485,-325.7476263,-325.7461667,-325.7444554,-
 325.7424773,-325.7518576,-325.7518218,-325.7516203,-325.7512428,-325.7
 506785,-325.7499159,-325.7489428,-325.7477465,-325.7463136,-325.744629
 6,-325.7426794,-325.7517813,-325.7517685,-325.7515905,-325.751237,-325
 .7506972,-325.7499596,-325.7490122,-325.7478422,-325.7464362,-325.7447
 797,-325.7428578,-325.7516834,-325.7516938,-325.7515396,-325.7512103,-
 325.7506953,-325.749983,-325.7490615,-325.747918,-325.746539,-325.7449
 103,-325.7430168,-325.7515682,-325.7516022,-325.7514719,-325.7511671,-
 325.7506771,-325.7499904,-325.749095,-325.7479782,-325.7466265,-325.74
 50257,-325.7431607,-325.7514399,-325.7514976,-325.7513915,-325.7511115
 ,-325.7506466,-325.7499856,-325.7491165,-325.7480265,-325.7467023,-325
 .7451296,-325.7432933,-325.7513022,-325.7513838,-325.7513021,-325.7510
 469,-325.7506074,-325.7499723,-325.7491296,-325.7480666,-325.7467699,-
 325.7452254,-325.743418,-325.7511583,-325.751264,-325.7512068,-325.750
 9766,-325.7505627,-325.7499536,-325.7491374,-325.7481016,-325.7468326,
 -325.7453163,-325.7435378,-325.7510113,-325.7511412,-325.7511088,-325.
 7509037,-325.7505154,-325.7499324,-325.7491429,-325.7481342,-325.74689
 3,-325.745405,-325.7436554,-325.7508639,-325.7510182,-325.7510106,-325
 .7508308,-325.7504682,-325.7499114,-325.7491486,-325.7481672,-325.7469
 537,-325.7454941,-325.7437734|RMSD=7.761e-009,5.108e-009,5.200e-009,5.
 260e-009,5.297e-009,5.323e-009,5.365e-009,5.446e-009,4.658e-009,5.380e
 -009,5.215e-009,6.093e-009,5.144e-009,5.232e-009,5.296e-009,5.339e-009
 ,5.373e-009,5.422e-009,5.531e-009,5.518e-009,5.186e-009,5.364e-009,6.0
 35e-009,5.177e-009,5.265e-009,5.332e-009,5.381e-009,5.424e-009,5.481e-
 009,5.593e-009,5.799e-009,4.084e-009,5.587e-009,5.950e-009,5.217e-009,
 5.304e-009,5.375e-009,5.432e-009,5.485e-009,5.552e-009,5.667e-009,5.89
 8e-009,5.229e-009,5.886e-009,5.853e-009,5.268e-009,5.357e-009,5.432e-0
 09,5.497e-009,5.561e-009,5.640e-009,5.761e-009,5.986e-009,6.061e-009,5
 .856e-009,5.758e-009,5.337e-009,5.427e-009,5.507e-009,5.581e-009,5.657
 e-009,5.748e-009,5.878e-009,6.097e-009,6.339e-009,4.341e-009,5.677e-00
 9,5.425e-009,5.518e-009,5.604e-009,5.687e-009,5.775e-009,5.878e-009,6.
 018e-009,6.234e-009,6.491e-009,3.448e-009,5.617e-009,5.534e-009,5.633e
 -009,5.726e-009,5.819e-009,5.917e-009,6.031e-009,6.181e-009,6.392e-009
 ,6.618e-009,4.793e-009,5.580e-009,5.667e-009,5.773e-009,5.876e-009,5.9
 78e-009,6.086e-009,6.209e-009,6.364e-009,6.563e-009,6.726e-009,5.325e-
 009,5.569e-009,5.823e-009,5.941e-009,6.056e-009,6.169e-009,6.286e-009,
 6.414e-009,6.564e-009,6.731e-009,6.778e-009,5.400e-009,5.583e-009,5.98
 4e-009,6.119e-009,6.251e-009,6.379e-009,6.502e-009,6.626e-009,6.748e-0
 09,6.837e-009,6.681e-009,5.101e-009|PG=C01 [X(C5H9N1O1)]||@


 A politician is a person who can make waves and then
 make you think he's the only one who can save the ship.
 -- Ivern Ball
 Job cpu time:       0 days  0 hours 42 minutes 30.0 seconds.
 File lengths (MBytes):  RWF=      9 Int=      0 D2E=      0 Chk=      3 Scr=      1
 Normal termination of Gaussian 09 at Mon Nov 06 16:14:57 2023.
