 Entering Gaussian System, Link 0=g16
 Initial command:
 /share/apps/gaussian/g16/l1.exe "/tmp/103466.mgr/Gau-120501.inp" -scrdir="/tmp/103466.mgr/"
 Entering Link 1 = /share/apps/gaussian/g16/l1.exe PID=    120502.
  
 Copyright (c) 1988,1990,1992,1993,1995,1998,2003,2009,2016,
            Gaussian, Inc.  All Rights Reserved.
  
 This is part of the Gaussian(R) 16 program.  It is based on
 the Gaussian(R) 09 system (copyright 2009, Gaussian, Inc.),
 the Gaussian(R) 03 system (copyright 2003, Gaussian, Inc.),
 the Gaussian(R) 98 system (copyright 1998, Gaussian, Inc.),
 the Gaussian(R) 94 system (copyright 1995, Gaussian, Inc.),
 the Gaussian 92(TM) system (copyright 1992, Gaussian, Inc.),
 the Gaussian 90(TM) system (copyright 1990, Gaussian, Inc.),
 the Gaussian 88(TM) system (copyright 1988, Gaussian, Inc.),
 the Gaussian 86(TM) system (copyright 1986, Carnegie Mellon
 University), and the Gaussian 82(TM) system (copyright 1983,
 Carnegie Mellon University). Gaussian is a federally registered
 trademark of Gaussian, Inc.
  
 This software contains proprietary and confidential information,
 including trade secrets, belonging to Gaussian, Inc.
  
 This software is provided under written license and may be
 used, copied, transmitted, or stored only in accord with that
 written license.
  
 The following legend is applicable only to US Government
 contracts under FAR:
  
                    RESTRICTED RIGHTS LEGEND
  
 Use, reproduction and disclosure by the US Government is
 subject to restrictions as set forth in subparagraphs (a)
 and (c) of the Commercial Computer Software - Restricted
 Rights clause in FAR 52.227-19.
  
 Gaussian, Inc.
 340 Quinnipiac St., Bldg. 40, Wallingford CT 06492
  
  
 ---------------------------------------------------------------
 Warning -- This program may not be used in any manner that
 competes with the business of Gaussian, Inc. or will provide
 assistance to any competitor of Gaussian, Inc.  The licensee
 of this program is prohibited from giving any competitor of
 Gaussian, Inc. access to this program.  By using this program,
 the user acknowledges that Gaussian, Inc. is engaged in the
 business of creating and licensing software in the field of
 computational chemistry and represents and warrants to the
 licensee that it is not a competitor of Gaussian, Inc. and that
 it will not use this program in any manner prohibited above.
 ---------------------------------------------------------------
  

 Cite this work as:
 Gaussian 16, Revision A.03,
 M. J. Frisch, G. W. Trucks, H. B. Schlegel, G. E. Scuseria, 
 M. A. Robb, J. R. Cheeseman, G. Scalmani, V. Barone, 
 G. A. Petersson, H. Nakatsuji, X. Li, M. Caricato, A. V. Marenich, 
 J. Bloino, B. G. Janesko, R. Gomperts, B. Mennucci, H. P. Hratchian, 
 J. V. Ortiz, A. F. Izmaylov, J. L. Sonnenberg, D. Williams-Young, 
 F. Ding, F. Lipparini, F. Egidi, J. Goings, B. Peng, A. Petrone, 
 T. Henderson, D. Ranasinghe, V. G. Zakrzewski, J. Gao, N. Rega, 
 G. Zheng, W. Liang, M. Hada, M. Ehara, K. Toyota, R. Fukuda, 
 J. Hasegawa, M. Ishida, T. Nakajima, Y. Honda, O. Kitao, H. Nakai, 
 T. Vreven, K. Throssell, J. A. Montgomery, Jr., J. E. Peralta, 
 F. Ogliaro, M. J. Bearpark, J. J. Heyd, E. N. Brothers, K. N. Kudin, 
 V. N. Staroverov, T. A. Keith, R. Kobayashi, J. Normand, 
 K. Raghavachari, A. P. Rendell, J. C. Burant, S. S. Iyengar, 
 J. Tomasi, M. Cossi, J. M. Millam, M. Klene, C. Adamo, R. Cammi, 
 J. W. Ochterski, R. L. Martin, K. Morokuma, O. Farkas, 
 J. B. Foresman, and D. J. Fox, Gaussian, Inc., Wallingford CT, 2016.
 
 ******************************************
 Gaussian 16:  ES64L-G16RevA.03 25-Dec-2016
                26-Dec-2024 
 ******************************************
 %nprocshared=4
 Will use up to    4 processors via shared memory.
 %mem=4GB
 ----------------
 # b3lyp/6-31g(d)
 ----------------
 1/38=1,172=1/1;
 2/12=2,17=6,18=5,40=1/2;
 3/5=1,6=6,7=1,11=2,25=1,30=1,74=-5/1,2,3;
 4//1;
 5/5=2,38=5/2;
 6/7=2,8=2,9=2,10=2,28=1/1;
 99/5=1,9=1/99;
 ----------------------
 tmpdir/M3_conf_0_5.gjf
 ----------------------
 Symbolic Z-matrix:
 Charge =  0 Multiplicity = 1
 C                     0.        0.        0. 
 C                     1.4634    0.        0. 
 H                     1.84957   0.        1.02956 
 C                    -1.19331   0.01287   0.01054 
 H                    -2.25941   0.02209   0.01305 
 H                     1.82655  -0.93604  -0.44767 
 H                     1.89961   0.86863  -0.54913 
 
                          Input orientation:                          
 ---------------------------------------------------------------------
 Center     Atomic      Atomic             Coordinates (Angstroms)
 Number     Number       Type             X           Y           Z
 ---------------------------------------------------------------------
      1          6           0        0.000000    0.000000    0.000000
      2          6           0        1.463400    0.000000    0.000000
      3          1           0        1.849570    0.000000    1.029560
      4          6           0       -1.193310    0.012870    0.010540
      5          1           0       -2.259410    0.022090    0.013050
      6          1           0        1.826550   -0.936040   -0.447670
      7          1           0        1.899610    0.868630   -0.549130
 ---------------------------------------------------------------------
                    Distance matrix (angstroms):
                    1          2          3          4          5
     1  C    0.000000
     2  C    1.463400   0.000000
     3  H    2.116814   1.099600   0.000000
     4  C    1.193426   2.656762   3.209001   0.000000
     5  H    2.259556   3.722898   4.232906   1.066143   0.000000
     6  H    2.100682   1.099299   1.748974   3.198428   4.222007
     7  H    2.159764   1.116396   1.802577   3.257562   4.281369
                    6          7
     6  H    0.000000
     7  H    1.808996   0.000000
 Stoichiometry    C3H4
 Framework group  C1[X(C3H4)]
 Deg. of freedom    15
 Full point group                 C1      NOp   1
 Largest Abelian subgroup         C1      NOp   1
 Largest concise Abelian subgroup C1      NOp   1
                         Standard orientation:                         
 ---------------------------------------------------------------------
 Center     Atomic      Atomic             Coordinates (Angstroms)
 Number     Number       Type             X           Y           Z
 ---------------------------------------------------------------------
      1          6           0       -0.224377    0.000267   -0.006193
      2          6           0        1.238991    0.006245    0.001411
      3          1           0        1.622574   -0.500079    0.898975
      4          6           0       -1.417766    0.001388    0.003123
      5          1           0       -2.483905    0.003815    0.004315
      6          1           0        1.608980   -0.585631   -0.847852
      7          1           0        1.671254    1.034492   -0.045486
 ---------------------------------------------------------------------
 Rotational constants (GHZ):         157.0320760           8.5891429           8.5694816
 Standard basis: 6-31G(d) (6D, 7F)
 There are    53 symmetry adapted cartesian basis functions of A   symmetry.
 There are    53 symmetry adapted basis functions of A   symmetry.
    53 basis functions,   100 primitive gaussians,    53 cartesian basis functions
    11 alpha electrons       11 beta electrons
       nuclear repulsion energy        58.7079163284 Hartrees.
 NAtoms=    7 NActive=    7 NUniq=    7 SFac= 1.00D+00 NAtFMM=   60 NAOKFM=F Big=F
 Integral buffers will be    131072 words long.
 Raffenetti 2 integral format.
 Two-electron integral symmetry is turned on.
 One-electron integrals computed using PRISM.
 NBasis=    53 RedAO= T EigKep=  4.83D-04  NBF=    53
 NBsUse=    53 1.00D-06 EigRej= -1.00D+00 NBFU=    53
 ExpMin= 1.61D-01 ExpMax= 3.05D+03 ExpMxC= 4.57D+02 IAcc=3 IRadAn=         5 AccDes= 0.00D+00
 Harris functional with IExCor=  402 and IRadAn=       5 diagonalized for initial guess.
 HarFok:  IExCor=  402 AccDes= 0.00D+00 IRadAn=         5 IDoV= 1 UseB2=F ITyADJ=14
 ICtDFT=  3500011 ScaDFX=  1.000000  1.000000  1.000000  1.000000
 FoFCou: FMM=F IPFlag=           0 FMFlag=      100000 FMFlg1=           0
         NFxFlg=           0 DoJE=T BraDBF=F KetDBF=T FulRan=T
         wScrn=  0.000000 ICntrl=       500 IOpCl=  0 I1Cent=   200000004 NGrid=           0
         NMat0=    1 NMatS0=      1 NMatT0=    0 NMatD0=    1 NMtDS0=    0 NMtDT0=    0
 Petite list used in FoFCou.
 Keep R1 ints in memory in canonical form, NReq=4527186.
 Requested convergence on RMS density matrix=1.00D-08 within 128 cycles.
 Requested convergence on MAX density matrix=1.00D-06.
 Requested convergence on             energy=1.00D-06.
 No special actions if energy rises.
 Integral accuracy reduced to 1.0D-05 until final iterations.
 Initial convergence to 1.0D-05 achieved.  Increase integral accuracy.
 SCF Done:  E(RB3LYP) =  -116.652194676     A.U. after   12 cycles
            NFock= 12  Conv=0.32D-08     -V/T= 2.0100

 **********************************************************************

            Population analysis using the SCF density.

 **********************************************************************

 Orbital symmetries:
       Occupied  (A) (A) (A) (A) (A) (A) (A) (A) (A) (A) (A)
       Virtual   (A) (A) (A) (A) (A) (A) (A) (A) (A) (A) (A) (A)
                 (A) (A) (A) (A) (A) (A) (A) (A) (A) (A) (A) (A)
                 (A) (A) (A) (A) (A) (A) (A) (A) (A) (A) (A) (A)
                 (A) (A) (A) (A) (A) (A)
 The electronic state is 1-A.
 Alpha  occ. eigenvalues --  -10.20883 -10.18107 -10.16887  -0.77312  -0.69522
 Alpha  occ. eigenvalues --   -0.52288  -0.44788  -0.42982  -0.42484  -0.26217
 Alpha  occ. eigenvalues --   -0.26093
 Alpha virt. eigenvalues --    0.06376   0.06620   0.10827   0.13363   0.18071
 Alpha virt. eigenvalues --    0.18261   0.23819   0.40564   0.46282   0.52569
 Alpha virt. eigenvalues --    0.52931   0.62378   0.63921   0.72360   0.73194
 Alpha virt. eigenvalues --    0.76868   0.78876   0.85320   0.85534   0.90334
 Alpha virt. eigenvalues --    1.01616   1.21575   1.40980   1.42216   1.48595
 Alpha virt. eigenvalues --    1.55276   1.55371   1.56980   1.86815   1.88673
 Alpha virt. eigenvalues --    1.95138   1.95972   2.10452   2.19679   2.23308
 Alpha virt. eigenvalues --    2.61077   2.72034   2.72712   3.37466   4.09792
 Alpha virt. eigenvalues --    4.25817   4.64390
          Condensed to atoms (all electrons):
               1          2          3          4          5          6
     1  C    4.567918   0.386812  -0.024119   0.784933   0.007374  -0.026016
     2  C    0.386812   5.293355   0.357613  -0.181203   0.002548   0.357912
     3  H   -0.024119   0.357613   0.544543   0.001476  -0.000008  -0.032816
     4  C    0.784933  -0.181203   0.001476   5.520917   0.345556   0.001417
     5  H    0.007374   0.002548  -0.000008   0.345556   0.462830  -0.000018
     6  H   -0.026016   0.357912  -0.032816   0.001417  -0.000018   0.545547
     7  H   -0.021398   0.357781  -0.028778   0.001144  -0.000009  -0.027710
               7
     1  C   -0.021398
     2  C    0.357781
     3  H   -0.028778
     4  C    0.001144
     5  H   -0.000009
     6  H   -0.027710
     7  H    0.539905
 Mulliken charges:
               1
     1  C    0.324494
     2  C   -0.574819
     3  H    0.182089
     4  C   -0.474239
     5  H    0.181727
     6  H    0.181683
     7  H    0.179064
 Sum of Mulliken charges =  -0.00000
 Mulliken charges with hydrogens summed into heavy atoms:
               1
     1  C    0.324494
     2  C   -0.031982
     4  C   -0.292512
 Electronic spatial extent (au):  <R**2>=            177.6286
 Charge=             -0.0000 electrons
 Dipole moment (field-independent basis, Debye):
    X=              0.6625    Y=             -0.0345    Z=              0.0040  Tot=              0.6634
 Quadrupole moment (field-independent basis, Debye-Ang):
   XX=            -13.8027   YY=            -18.9225   ZZ=            -19.1049
   XY=             -0.0236   XZ=              0.0098   YZ=              0.0001
 Traceless Quadrupole moment (field-independent basis, Debye-Ang):
   XX=              3.4740   YY=             -1.6458   ZZ=             -1.8282
   XY=             -0.0236   XZ=              0.0098   YZ=              0.0001
 Octapole moment (field-independent basis, Debye-Ang**2):
  XXX=             -9.4577  YYY=              0.5440  ZZZ=              0.0950  XYY=              2.5147
  XXY=              0.0552  XXZ=              0.0857  XZZ=              2.1921  YZZ=             -0.6635
  YYZ=             -0.0879  XYZ=             -0.0071
 Hexadecapole moment (field-independent basis, Debye-Ang**3):
 XXXX=           -156.8673 YYYY=            -26.1160 ZZZZ=            -25.8430 XXXY=              0.0540
 XXXZ=              0.0749 YYYX=              1.0181 YYYZ=              0.0104 ZZZX=              0.1699
 ZZZY=             -0.0048 XXYY=            -35.7222 XXZZ=            -36.3285 YYZZ=             -8.6167
 XXYZ=             -0.0386 YYXZ=             -0.1485 ZZXY=             -1.1159
 N-N= 5.870791632840D+01 E-N=-3.871668988746D+02  KE= 1.154982385219D+02
 1\1\GINC-NODE87\SP\RB3LYP\6-31G(d)\C3H4\YANZ\26-Dec-2024\0\\# b3lyp/6-
 31g(d)\\tmpdir/M3_conf_0_5.gjf\\0,1\C,0,0.,0.,0.\C,0,1.4634,0.,0.\H,0,
 1.84957,0.,1.02956\C,0,-1.19331,0.01287,0.01054\H,0,-2.25941,0.02209,0
 .01305\H,0,1.82655,-0.93604,-0.44767\H,0,1.89961,0.86863,-0.54913\\Ver
 sion=ES64L-G16RevA.03\State=1-A\HF=-116.6521947\RMSD=3.231e-09\Dipole=
 0.2606095,-0.0126185,0.0074005\Quadrupole=2.582595,-1.2562783,-1.32631
 67,-0.0352782,0.0048069,-0.0581796\PG=C01 [X(C3H4)]\\@


 Until you make peace with who you are,
 you'll never be content with what you have.
                           -- Doris Mortman
 Job cpu time:       0 days  0 hours  0 minutes  9.8 seconds.
 Elapsed time:       0 days  0 hours  0 minutes  2.6 seconds.
 File lengths (MBytes):  RWF=      6 Int=      0 D2E=      0 Chk=      1 Scr=      1
 Normal termination of Gaussian 16 at Thu Dec 26 10:46:18 2024.
