 Entering Gaussian System, Link 0=g16
 Initial command:
 /share/apps/gaussian/g16/l1.exe "/tmp/103466.mgr/Gau-120732.inp" -scrdir="/tmp/103466.mgr/"
 Entering Link 1 = /share/apps/gaussian/g16/l1.exe PID=    120733.
  
 Copyright (c) 1988,1990,1992,1993,1995,1998,2003,2009,2016,
            Gaussian, Inc.  All Rights Reserved.
  
 This is part of the Gaussian(R) 16 program.  It is based on
 the Gaussian(R) 09 system (copyright 2009, Gaussian, Inc.),
 the Gaussian(R) 03 system (copyright 2003, Gaussian, Inc.),
 the Gaussian(R) 98 system (copyright 1998, Gaussian, Inc.),
 the Gaussian(R) 94 system (copyright 1995, Gaussian, Inc.),
 the Gaussian 92(TM) system (copyright 1992, Gaussian, Inc.),
 the Gaussian 90(TM) system (copyright 1990, Gaussian, Inc.),
 the Gaussian 88(TM) system (copyright 1988, Gaussian, Inc.),
 the Gaussian 86(TM) system (copyright 1986, Carnegie Mellon
 University), and the Gaussian 82(TM) system (copyright 1983,
 Carnegie Mellon University). Gaussian is a federally registered
 trademark of Gaussian, Inc.
  
 This software contains proprietary and confidential information,
 including trade secrets, belonging to Gaussian, Inc.
  
 This software is provided under written license and may be
 used, copied, transmitted, or stored only in accord with that
 written license.
  
 The following legend is applicable only to US Government
 contracts under FAR:
  
                    RESTRICTED RIGHTS LEGEND
  
 Use, reproduction and disclosure by the US Government is
 subject to restrictions as set forth in subparagraphs (a)
 and (c) of the Commercial Computer Software - Restricted
 Rights clause in FAR 52.227-19.
  
 Gaussian, Inc.
 340 Quinnipiac St., Bldg. 40, Wallingford CT 06492
  
  
 ---------------------------------------------------------------
 Warning -- This program may not be used in any manner that
 competes with the business of Gaussian, Inc. or will provide
 assistance to any competitor of Gaussian, Inc.  The licensee
 of this program is prohibited from giving any competitor of
 Gaussian, Inc. access to this program.  By using this program,
 the user acknowledges that Gaussian, Inc. is engaged in the
 business of creating and licensing software in the field of
 computational chemistry and represents and warrants to the
 licensee that it is not a competitor of Gaussian, Inc. and that
 it will not use this program in any manner prohibited above.
 ---------------------------------------------------------------
  

 Cite this work as:
 Gaussian 16, Revision A.03,
 M. J. Frisch, G. W. Trucks, H. B. Schlegel, G. E. Scuseria, 
 M. A. Robb, J. R. Cheeseman, G. Scalmani, V. Barone, 
 G. A. Petersson, H. Nakatsuji, X. Li, M. Caricato, A. V. Marenich, 
 J. Bloino, B. G. Janesko, R. Gomperts, B. Mennucci, H. P. Hratchian, 
 J. V. Ortiz, A. F. Izmaylov, J. L. Sonnenberg, D. Williams-Young, 
 F. Ding, F. Lipparini, F. Egidi, J. Goings, B. Peng, A. Petrone, 
 T. Henderson, D. Ranasinghe, V. G. Zakrzewski, J. Gao, N. Rega, 
 G. Zheng, W. Liang, M. Hada, M. Ehara, K. Toyota, R. Fukuda, 
 J. Hasegawa, M. Ishida, T. Nakajima, Y. Honda, O. Kitao, H. Nakai, 
 T. Vreven, K. Throssell, J. A. Montgomery, Jr., J. E. Peralta, 
 F. Ogliaro, M. J. Bearpark, J. J. Heyd, E. N. Brothers, K. N. Kudin, 
 V. N. Staroverov, T. A. Keith, R. Kobayashi, J. Normand, 
 K. Raghavachari, A. P. Rendell, J. C. Burant, S. S. Iyengar, 
 J. Tomasi, M. Cossi, J. M. Millam, M. Klene, C. Adamo, R. Cammi, 
 J. W. Ochterski, R. L. Martin, K. Morokuma, O. Farkas, 
 J. B. Foresman, and D. J. Fox, Gaussian, Inc., Wallingford CT, 2016.
 
 ******************************************
 Gaussian 16:  ES64L-G16RevA.03 25-Dec-2016
                26-Dec-2024 
 ******************************************
 %nprocshared=4
 Will use up to    4 processors via shared memory.
 %mem=4GB
 ----------------
 # b3lyp/6-31g(d)
 ----------------
 1/38=1,172=1/1;
 2/12=2,17=6,18=5,40=1/2;
 3/5=1,6=6,7=1,11=2,25=1,30=1,74=-5/1,2,3;
 4//1;
 5/5=2,38=5/2;
 6/7=2,8=2,9=2,10=2,28=1/1;
 99/5=1,9=1/99;
 -----------------------
 tmpdir/M3_conf_0_20.gjf
 -----------------------
 Symbolic Z-matrix:
 Charge =  0 Multiplicity = 1
 C                     0.        0.        0. 
 C                     1.5396    0.        0. 
 H                    -0.41722   0.       -1.07454 
 H                    -0.38099  -0.91745   0.4705 
 H                    -0.37863   0.85707   0.58159 
 H                     1.95944  -0.00433   1.03444 
 H                     1.90242  -0.87503  -0.55146 
 H                     1.89598   0.88889  -0.53135 
 
                          Input orientation:                          
 ---------------------------------------------------------------------
 Center     Atomic      Atomic             Coordinates (Angstroms)
 Number     Number       Type             X           Y           Z
 ---------------------------------------------------------------------
      1          6           0        0.000000    0.000000    0.000000
      2          6           0        1.539600    0.000000    0.000000
      3          1           0       -0.417220    0.000000   -1.074540
      4          1           0       -0.380990   -0.917450    0.470500
      5          1           0       -0.378630    0.857070    0.581590
      6          1           0        1.959440   -0.004330    1.034440
      7          1           0        1.902420   -0.875030   -0.551460
      8          1           0        1.895980    0.888890   -0.531350
 ---------------------------------------------------------------------
                    Distance matrix (angstroms):
                    1          2          3          4          5
     1  C    0.000000
     2  C    1.539600   0.000000
     3  H    1.152696   2.232438   0.000000
     4  H    1.099199   2.179851   1.797269   0.000000
     5  H    1.102804   2.180005   1.865161   1.777995   0.000000
     6  H    2.215737   1.116401   3.177472   2.574768   2.532519
     7  H    2.165407   1.096095   2.533776   2.502032   3.080124
     8  H    2.160370   1.095201   2.536942   3.074274   2.532489
                    6          7          8
     6  H    0.000000
     7  H    1.810096   0.000000
     8  H    1.803765   1.764046   0.000000
 Stoichiometry    C2H6
 Framework group  C1[X(C2H6)]
 Deg. of freedom    18
 Full point group                 C1      NOp   1
 Largest Abelian subgroup         C1      NOp   1
 Largest concise Abelian subgroup C1      NOp   1
                         Standard orientation:                         
 ---------------------------------------------------------------------
 Center     Atomic      Atomic             Coordinates (Angstroms)
 Number     Number       Type             X           Y           Z
 ---------------------------------------------------------------------
      1          6           0        0.767626   -0.010520   -0.005099
      2          6           0       -0.771912    0.001458    0.001782
      3          1           0        1.191597    1.021477   -0.294823
      4          1           0        1.151500   -0.221037    1.003148
      5          1           0        1.137101   -0.803354   -0.676723
      6          1           0       -1.198223   -0.990725    0.284947
      7          1           0       -1.125652    0.769952    0.698711
      8          1           0       -1.130611    0.278058   -0.995360
 ---------------------------------------------------------------------
 Rotational constants (GHZ):          77.1230554          19.8655020          19.6484721
 Standard basis: 6-31G(d) (6D, 7F)
 There are    42 symmetry adapted cartesian basis functions of A   symmetry.
 There are    42 symmetry adapted basis functions of A   symmetry.
    42 basis functions,    80 primitive gaussians,    42 cartesian basis functions
     9 alpha electrons        9 beta electrons
       nuclear repulsion energy        41.7639268789 Hartrees.
 NAtoms=    8 NActive=    8 NUniq=    8 SFac= 1.00D+00 NAtFMM=   60 NAOKFM=F Big=F
 Integral buffers will be    131072 words long.
 Raffenetti 2 integral format.
 Two-electron integral symmetry is turned on.
 One-electron integrals computed using PRISM.
 NBasis=    42 RedAO= T EigKep=  8.60D-03  NBF=    42
 NBsUse=    42 1.00D-06 EigRej= -1.00D+00 NBFU=    42
 ExpMin= 1.61D-01 ExpMax= 3.05D+03 ExpMxC= 4.57D+02 IAcc=3 IRadAn=         5 AccDes= 0.00D+00
 Harris functional with IExCor=  402 and IRadAn=       5 diagonalized for initial guess.
 HarFok:  IExCor=  402 AccDes= 0.00D+00 IRadAn=         5 IDoV= 1 UseB2=F ITyADJ=14
 ICtDFT=  3500011 ScaDFX=  1.000000  1.000000  1.000000  1.000000
 FoFCou: FMM=F IPFlag=           0 FMFlag=      100000 FMFlg1=           0
         NFxFlg=           0 DoJE=T BraDBF=F KetDBF=T FulRan=T
         wScrn=  0.000000 ICntrl=       500 IOpCl=  0 I1Cent=   200000004 NGrid=           0
         NMat0=    1 NMatS0=      1 NMatT0=    0 NMatD0=    1 NMtDS0=    0 NMtDT0=    0
 Petite list used in FoFCou.
 Keep R1 ints in memory in canonical form, NReq=3861446.
 Requested convergence on RMS density matrix=1.00D-08 within 128 cycles.
 Requested convergence on MAX density matrix=1.00D-06.
 Requested convergence on             energy=1.00D-06.
 No special actions if energy rises.
 Integral accuracy reduced to 1.0D-05 until final iterations.
 Initial convergence to 1.0D-05 achieved.  Increase integral accuracy.
 SCF Done:  E(RB3LYP) =  -79.8273543816     A.U. after   11 cycles
            NFock= 11  Conv=0.86D-09     -V/T= 2.0122

 **********************************************************************

            Population analysis using the SCF density.

 **********************************************************************

 Orbital symmetries:
       Occupied  (A) (A) (A) (A) (A) (A) (A) (A) (A)
       Virtual   (A) (A) (A) (A) (A) (A) (A) (A) (A) (A) (A) (A)
                 (A) (A) (A) (A) (A) (A) (A) (A) (A) (A) (A) (A)
                 (A) (A) (A) (A) (A) (A) (A) (A) (A)
 The electronic state is 1-A.
 Alpha  occ. eigenvalues --  -10.17924 -10.17515  -0.74447  -0.60606  -0.43215
 Alpha  occ. eigenvalues --   -0.42659  -0.35686  -0.34208  -0.33618
 Alpha virt. eigenvalues --    0.09981   0.14711   0.16096   0.16466   0.18373
 Alpha virt. eigenvalues --    0.18744   0.23585   0.51429   0.54599   0.55527
 Alpha virt. eigenvalues --    0.62354   0.64895   0.66204   0.85983   0.87876
 Alpha virt. eigenvalues --    0.88193   0.91672   0.92042   0.96643   1.06330
 Alpha virt. eigenvalues --    1.43234   1.51909   1.52998   1.92193   1.97335
 Alpha virt. eigenvalues --    2.01096   2.22083   2.28182   2.30021   2.30317
 Alpha virt. eigenvalues --    2.58420   4.13376   4.35969
          Condensed to atoms (all electrons):
               1          2          3          4          5          6
     1  C    5.025652   0.370184   0.376046   0.379878   0.381253  -0.032957
     2  C    0.370184   5.018412  -0.033092  -0.036162  -0.036851   0.380518
     3  H    0.376046  -0.033092   0.587697  -0.033311  -0.025761   0.004067
     4  H    0.379878  -0.036162  -0.033311   0.580146  -0.032898  -0.003160
     5  H    0.381253  -0.036851  -0.025761  -0.032898   0.571293  -0.003317
     6  H   -0.032957   0.380518   0.004067  -0.003160  -0.003317   0.573044
     7  H   -0.036461   0.382124  -0.003000  -0.004341   0.004770  -0.029065
     8  H   -0.037426   0.382349  -0.004018   0.004933  -0.003609  -0.030168
               7          8
     1  C   -0.036461  -0.037426
     2  C    0.382124   0.382349
     3  H   -0.003000  -0.004018
     4  H   -0.004341   0.004933
     5  H    0.004770  -0.003609
     6  H   -0.029065  -0.030168
     7  H    0.573833  -0.033085
     8  H   -0.033085   0.575034
 Mulliken charges:
               1
     1  C   -0.426170
     2  C   -0.427483
     3  H    0.131371
     4  H    0.144913
     5  H    0.145118
     6  H    0.141037
     7  H    0.145224
     8  H    0.145988
 Sum of Mulliken charges =  -0.00000
 Mulliken charges with hydrogens summed into heavy atoms:
               1
     1  C   -0.004766
     2  C    0.004766
 Electronic spatial extent (au):  <R**2>=            110.6552
 Charge=             -0.0000 electrons
 Dipole moment (field-independent basis, Debye):
    X=             -0.0218    Y=             -0.0099    Z=              0.0218  Tot=              0.0324
 Quadrupole moment (field-independent basis, Debye-Ang):
   XX=            -15.4968   YY=            -14.5935   ZZ=            -14.8416
   XY=              0.0225   XZ=              0.0415   YZ=              0.0428
 Traceless Quadrupole moment (field-independent basis, Debye-Ang):
   XX=             -0.5195   YY=              0.3838   ZZ=              0.1357
   XY=              0.0225   XZ=              0.0415   YZ=              0.0428
 Octapole moment (field-independent basis, Debye-Ang**2):
  XXX=             -0.1579  YYY=             -0.0817  ZZZ=              0.0693  XYY=             -0.0225
  XXY=             -0.0626  XXZ=              0.1018  XZZ=             -0.0764  YZZ=              0.0140
  YYZ=             -0.0281  XYZ=              0.0933
 Hexadecapole moment (field-independent basis, Debye-Ang**3):
 XXXX=            -94.1179 YYYY=            -29.7954 ZZZZ=            -28.7953 XXXY=              0.0883
 XXXZ=              0.1364 YYYX=              0.6987 YYYZ=              0.1342 ZZZX=              1.0685
 ZZZY=              0.0627 XXYY=            -19.2450 XXZZ=            -19.5531 YYZZ=             -9.7754
 XXYZ=             -0.0068 YYXZ=             -0.9663 ZZXY=             -0.8435
 N-N= 4.176392687889D+01 E-N=-2.672509585659D+02  KE= 7.886390915362D+01
 1\1\GINC-NODE87\SP\RB3LYP\6-31G(d)\C2H6\YANZ\26-Dec-2024\0\\# b3lyp/6-
 31g(d)\\tmpdir/M3_conf_0_20.gjf\\0,1\C,0,0.,0.,0.\C,0,1.5396,0.,0.\H,0
 ,-0.41722,0.,-1.07454\H,0,-0.38099,-0.91745,0.4705\H,0,-0.37863,0.8570
 7,0.58159\H,0,1.95944,-0.00433,1.03444\H,0,1.90242,-0.87503,-0.55146\H
 ,0,1.89598,0.88889,-0.53135\\Version=ES64L-G16RevA.03\State=1-A\HF=-79
 .8273544\RMSD=8.560e-10\Dipole=0.0085758,-0.0071697,0.0061169\Quadrupo
 le=-0.3867423,0.1310025,0.2557398,0.0304102,0.0033543,0.0751212\PG=C01
  [X(C2H6)]\\@


 A FOOL CAN ASK MORE QUESTIONS THAN
 A WISE MAN CAN ANSWER.
 Job cpu time:       0 days  0 hours  0 minutes  9.2 seconds.
 Elapsed time:       0 days  0 hours  0 minutes  2.4 seconds.
 File lengths (MBytes):  RWF=      6 Int=      0 D2E=      0 Chk=      1 Scr=      1
 Normal termination of Gaussian 16 at Thu Dec 26 10:46:20 2024.
