 Entering Gaussian System, Link 0=g16
 Initial command:
 /share/apps/gaussian/g16/l1.exe "/tmp/103466.mgr/Gau-120720.inp" -scrdir="/tmp/103466.mgr/"
 Entering Link 1 = /share/apps/gaussian/g16/l1.exe PID=    120721.
  
 Copyright (c) 1988,1990,1992,1993,1995,1998,2003,2009,2016,
            Gaussian, Inc.  All Rights Reserved.
  
 This is part of the Gaussian(R) 16 program.  It is based on
 the Gaussian(R) 09 system (copyright 2009, Gaussian, Inc.),
 the Gaussian(R) 03 system (copyright 2003, Gaussian, Inc.),
 the Gaussian(R) 98 system (copyright 1998, Gaussian, Inc.),
 the Gaussian(R) 94 system (copyright 1995, Gaussian, Inc.),
 the Gaussian 92(TM) system (copyright 1992, Gaussian, Inc.),
 the Gaussian 90(TM) system (copyright 1990, Gaussian, Inc.),
 the Gaussian 88(TM) system (copyright 1988, Gaussian, Inc.),
 the Gaussian 86(TM) system (copyright 1986, Carnegie Mellon
 University), and the Gaussian 82(TM) system (copyright 1983,
 Carnegie Mellon University). Gaussian is a federally registered
 trademark of Gaussian, Inc.
  
 This software contains proprietary and confidential information,
 including trade secrets, belonging to Gaussian, Inc.
  
 This software is provided under written license and may be
 used, copied, transmitted, or stored only in accord with that
 written license.
  
 The following legend is applicable only to US Government
 contracts under FAR:
  
                    RESTRICTED RIGHTS LEGEND
  
 Use, reproduction and disclosure by the US Government is
 subject to restrictions as set forth in subparagraphs (a)
 and (c) of the Commercial Computer Software - Restricted
 Rights clause in FAR 52.227-19.
  
 Gaussian, Inc.
 340 Quinnipiac St., Bldg. 40, Wallingford CT 06492
  
  
 ---------------------------------------------------------------
 Warning -- This program may not be used in any manner that
 competes with the business of Gaussian, Inc. or will provide
 assistance to any competitor of Gaussian, Inc.  The licensee
 of this program is prohibited from giving any competitor of
 Gaussian, Inc. access to this program.  By using this program,
 the user acknowledges that Gaussian, Inc. is engaged in the
 business of creating and licensing software in the field of
 computational chemistry and represents and warrants to the
 licensee that it is not a competitor of Gaussian, Inc. and that
 it will not use this program in any manner prohibited above.
 ---------------------------------------------------------------
  

 Cite this work as:
 Gaussian 16, Revision A.03,
 M. J. Frisch, G. W. Trucks, H. B. Schlegel, G. E. Scuseria, 
 M. A. Robb, J. R. Cheeseman, G. Scalmani, V. Barone, 
 G. A. Petersson, H. Nakatsuji, X. Li, M. Caricato, A. V. Marenich, 
 J. Bloino, B. G. Janesko, R. Gomperts, B. Mennucci, H. P. Hratchian, 
 J. V. Ortiz, A. F. Izmaylov, J. L. Sonnenberg, D. Williams-Young, 
 F. Ding, F. Lipparini, F. Egidi, J. Goings, B. Peng, A. Petrone, 
 T. Henderson, D. Ranasinghe, V. G. Zakrzewski, J. Gao, N. Rega, 
 G. Zheng, W. Liang, M. Hada, M. Ehara, K. Toyota, R. Fukuda, 
 J. Hasegawa, M. Ishida, T. Nakajima, Y. Honda, O. Kitao, H. Nakai, 
 T. Vreven, K. Throssell, J. A. Montgomery, Jr., J. E. Peralta, 
 F. Ogliaro, M. J. Bearpark, J. J. Heyd, E. N. Brothers, K. N. Kudin, 
 V. N. Staroverov, T. A. Keith, R. Kobayashi, J. Normand, 
 K. Raghavachari, A. P. Rendell, J. C. Burant, S. S. Iyengar, 
 J. Tomasi, M. Cossi, J. M. Millam, M. Klene, C. Adamo, R. Cammi, 
 J. W. Ochterski, R. L. Martin, K. Morokuma, O. Farkas, 
 J. B. Foresman, and D. J. Fox, Gaussian, Inc., Wallingford CT, 2016.
 
 ******************************************
 Gaussian 16:  ES64L-G16RevA.03 25-Dec-2016
                26-Dec-2024 
 ******************************************
 %nprocshared=4
 Will use up to    4 processors via shared memory.
 %mem=4GB
 ----------------
 # b3lyp/6-31g(d)
 ----------------
 1/38=1,172=1/1;
 2/12=2,17=6,18=5,40=1/2;
 3/5=1,6=6,7=1,11=2,25=1,30=1,74=-5/1,2,3;
 4//1;
 5/5=2,38=5/2;
 6/7=2,8=2,9=2,10=2,28=1/1;
 99/5=1,9=1/99;
 ----------------------
 tmpdir/M3_conf_0_7.gjf
 ----------------------
 Symbolic Z-matrix:
 Charge =  0 Multiplicity = 1
 H                     0.        0.        0. 
 C                     1.0993    0.        0. 
 H                     1.40608   0.        1.05594 
 H                     1.44927   0.88589  -0.46372 
 H                     1.47123  -0.92829  -0.49628 
 
                          Input orientation:                          
 ---------------------------------------------------------------------
 Center     Atomic      Atomic             Coordinates (Angstroms)
 Number     Number       Type             X           Y           Z
 ---------------------------------------------------------------------
      1          1           0        0.000000    0.000000    0.000000
      2          6           0        1.099300    0.000000    0.000000
      3          1           0        1.406080    0.000000    1.055940
      4          1           0        1.449270    0.885890   -0.463720
      5          1           0        1.471230   -0.928290   -0.496280
 ---------------------------------------------------------------------
                    Distance matrix (angstroms):
                    1          2          3          4          5
     1  H    0.000000
     2  C    1.099300   0.000000
     3  H    1.758428   1.099601   0.000000
     4  H    1.760744   1.059394   1.759555   0.000000
     5  H    1.809015   1.116400   1.809794   1.814605   0.000000
 Stoichiometry    CH4
 Framework group  C1[X(CH4)]
 Deg. of freedom     9
 Full point group                 C1      NOp   1
 Largest Abelian subgroup         C1      NOp   1
 Largest concise Abelian subgroup C1      NOp   1
                         Standard orientation:                         
 ---------------------------------------------------------------------
 Center     Atomic      Atomic             Coordinates (Angstroms)
 Number     Number       Type             X           Y           Z
 ---------------------------------------------------------------------
      1          1           0       -0.349106   -0.689467   -0.771916
      2          6           0        0.002962    0.012080   -0.002279
      3          1           0       -0.366656   -0.375348    0.958140
      4          1           0       -0.421262    0.966697   -0.178507
      5          1           0        1.119249    0.025640    0.005960
 ---------------------------------------------------------------------
 Rotational constants (GHZ):         161.8293756         155.1334083         154.7983620
 Standard basis: 6-31G(d) (6D, 7F)
 There are    23 symmetry adapted cartesian basis functions of A   symmetry.
 There are    23 symmetry adapted basis functions of A   symmetry.
    23 basis functions,    44 primitive gaussians,    23 cartesian basis functions
     5 alpha electrons        5 beta electrons
       nuclear repulsion energy        13.3955663966 Hartrees.
 NAtoms=    5 NActive=    5 NUniq=    5 SFac= 1.00D+00 NAtFMM=   60 NAOKFM=F Big=F
 Integral buffers will be    131072 words long.
 Raffenetti 2 integral format.
 Two-electron integral symmetry is turned on.
 One-electron integrals computed using PRISM.
 NBasis=    23 RedAO= T EigKep=  1.79D-02  NBF=    23
 NBsUse=    23 1.00D-06 EigRej= -1.00D+00 NBFU=    23
 ExpMin= 1.61D-01 ExpMax= 3.05D+03 ExpMxC= 4.57D+02 IAcc=3 IRadAn=         5 AccDes= 0.00D+00
 Harris functional with IExCor=  402 and IRadAn=       5 diagonalized for initial guess.
 HarFok:  IExCor=  402 AccDes= 0.00D+00 IRadAn=         5 IDoV= 1 UseB2=F ITyADJ=14
 ICtDFT=  3500011 ScaDFX=  1.000000  1.000000  1.000000  1.000000
 FoFCou: FMM=F IPFlag=           0 FMFlag=      100000 FMFlg1=           0
         NFxFlg=           0 DoJE=T BraDBF=F KetDBF=T FulRan=T
         wScrn=  0.000000 ICntrl=       500 IOpCl=  0 I1Cent=   200000004 NGrid=           0
         NMat0=    1 NMatS0=      1 NMatT0=    0 NMatD0=    1 NMtDS0=    0 NMtDT0=    0
 Petite list used in FoFCou.
 Keep R1 ints in memory in canonical form, NReq=3486400.
 Requested convergence on RMS density matrix=1.00D-08 within 128 cycles.
 Requested convergence on MAX density matrix=1.00D-06.
 Requested convergence on             energy=1.00D-06.
 No special actions if energy rises.
 Integral accuracy reduced to 1.0D-05 until final iterations.
 Initial convergence to 1.0D-05 achieved.  Increase integral accuracy.
 SCF Done:  E(RB3LYP) =  -40.5168407598     A.U. after    9 cycles
            NFock=  9  Conv=0.45D-08     -V/T= 2.0111

 **********************************************************************

            Population analysis using the SCF density.

 **********************************************************************

 Orbital symmetries:
       Occupied  (A) (A) (A) (A) (A)
       Virtual   (A) (A) (A) (A) (A) (A) (A) (A) (A) (A) (A) (A)
                 (A) (A) (A) (A) (A) (A)
 The electronic state is 1-A.
 Alpha  occ. eigenvalues --  -10.16712  -0.69060  -0.39770  -0.38687  -0.38239
 Alpha virt. eigenvalues --    0.11724   0.17143   0.17293   0.18470   0.52614
 Alpha virt. eigenvalues --    0.53275   0.54158   0.88415   0.88838   0.91262
 Alpha virt. eigenvalues --    0.95642   1.10111   1.65619   1.65699   2.21307
 Alpha virt. eigenvalues --    2.24301   2.27239   4.17899
          Condensed to atoms (all electrons):
               1          2          3          4          5
     1  H    0.547069   0.381964  -0.029664  -0.028034  -0.025780
     2  C    0.381964   5.093450   0.381900   0.388257   0.382476
     3  H   -0.029664   0.381900   0.547314  -0.028186  -0.025689
     4  H   -0.028034   0.388257  -0.028186   0.525190  -0.023794
     5  H   -0.025780   0.382476  -0.025689  -0.023794   0.540076
 Mulliken charges:
               1
     1  H    0.154445
     2  C   -0.628047
     3  H    0.154324
     4  H    0.166567
     5  H    0.152711
 Sum of Mulliken charges =   0.00000
 Mulliken charges with hydrogens summed into heavy atoms:
               1
     2  C    0.000000
 Electronic spatial extent (au):  <R**2>=             35.4945
 Charge=              0.0000 electrons
 Dipole moment (field-independent basis, Debye):
    X=             -0.0420    Y=             -0.0071    Z=              0.0010  Tot=              0.0426
 Quadrupole moment (field-independent basis, Debye-Ang):
   XX=             -8.1551   YY=             -8.2462   ZZ=             -8.3584
   XY=             -0.0447   XZ=              0.0084   YZ=             -0.0191
 Traceless Quadrupole moment (field-independent basis, Debye-Ang):
   XX=              0.0982   YY=              0.0070   ZZ=             -0.1052
   XY=             -0.0447   XZ=              0.0084   YZ=             -0.0191
 Octapole moment (field-independent basis, Debye-Ang**2):
  XXX=              0.7188  YYY=              0.4359  ZZZ=              0.2451  XYY=             -0.4765
  XXY=              0.0701  XXZ=              0.0022  XZZ=             -0.4055  YZZ=             -0.4309
  YYZ=             -0.2629  XYZ=              0.0188
 Hexadecapole moment (field-independent basis, Debye-Ang**3):
 XXXX=            -15.1232 YYYY=            -14.8599 ZZZZ=            -15.1807 XXXY=             -0.0882
 XXXZ=              0.0264 YYYX=             -0.3477 YYYZ=              0.0066 ZZZX=             -0.1504
 ZZZY=             -0.0615 XXYY=             -5.2209 XXZZ=             -5.3347 YYZZ=             -4.9439
 XXYZ=             -0.0283 YYXZ=              0.1615 ZZXY=              0.2393
 N-N= 1.339556639662D+01 E-N=-1.198285356027D+02  KE= 4.007240281814D+01
 1\1\GINC-NODE87\SP\RB3LYP\6-31G(d)\C1H4\YANZ\26-Dec-2024\0\\# b3lyp/6-
 31g(d)\\tmpdir/M3_conf_0_7.gjf\\0,1\H,0,0.,0.,0.\C,0,1.0993,0.,0.\H,0,
 1.40608,0.,1.05594\H,0,1.44927,0.88589,-0.46372\H,0,1.47123,-0.92829,-
 0.49628\\Version=ES64L-G16RevA.03\State=1-A\HF=-40.5168408\RMSD=4.518e
 -09\Dipole=-0.0067878,0.0122879,0.0091499\Quadrupole=-0.0522053,0.0843
 447,-0.0321393,-0.0082014,-0.0370262,0.0142816\PG=C01 [X(C1H4)]\\@


 THE SECRET OF SUCCESS IN LIFE IS TO EAT WHAT YOU LIKE, AND LET THE FOOD
 FIGHT IT OUT INSIDE YOU. -- FROM A FORTUNE COOKIE
 Job cpu time:       0 days  0 hours  0 minutes  4.9 seconds.
 Elapsed time:       0 days  0 hours  0 minutes  1.4 seconds.
 File lengths (MBytes):  RWF=      6 Int=      0 D2E=      0 Chk=      1 Scr=      1
 Normal termination of Gaussian 16 at Thu Dec 26 10:46:19 2024.
