 Entering Gaussian System, Link 0=g16
 Initial command:
 /share/apps/gaussian/g16/l1.exe "/tmp/103466.mgr/Gau-121167.inp" -scrdir="/tmp/103466.mgr/"
 Entering Link 1 = /share/apps/gaussian/g16/l1.exe PID=    121168.
  
 Copyright (c) 1988,1990,1992,1993,1995,1998,2003,2009,2016,
            Gaussian, Inc.  All Rights Reserved.
  
 This is part of the Gaussian(R) 16 program.  It is based on
 the Gaussian(R) 09 system (copyright 2009, Gaussian, Inc.),
 the Gaussian(R) 03 system (copyright 2003, Gaussian, Inc.),
 the Gaussian(R) 98 system (copyright 1998, Gaussian, Inc.),
 the Gaussian(R) 94 system (copyright 1995, Gaussian, Inc.),
 the Gaussian 92(TM) system (copyright 1992, Gaussian, Inc.),
 the Gaussian 90(TM) system (copyright 1990, Gaussian, Inc.),
 the Gaussian 88(TM) system (copyright 1988, Gaussian, Inc.),
 the Gaussian 86(TM) system (copyright 1986, Carnegie Mellon
 University), and the Gaussian 82(TM) system (copyright 1983,
 Carnegie Mellon University). Gaussian is a federally registered
 trademark of Gaussian, Inc.
  
 This software contains proprietary and confidential information,
 including trade secrets, belonging to Gaussian, Inc.
  
 This software is provided under written license and may be
 used, copied, transmitted, or stored only in accord with that
 written license.
  
 The following legend is applicable only to US Government
 contracts under FAR:
  
                    RESTRICTED RIGHTS LEGEND
  
 Use, reproduction and disclosure by the US Government is
 subject to restrictions as set forth in subparagraphs (a)
 and (c) of the Commercial Computer Software - Restricted
 Rights clause in FAR 52.227-19.
  
 Gaussian, Inc.
 340 Quinnipiac St., Bldg. 40, Wallingford CT 06492
  
  
 ---------------------------------------------------------------
 Warning -- This program may not be used in any manner that
 competes with the business of Gaussian, Inc. or will provide
 assistance to any competitor of Gaussian, Inc.  The licensee
 of this program is prohibited from giving any competitor of
 Gaussian, Inc. access to this program.  By using this program,
 the user acknowledges that Gaussian, Inc. is engaged in the
 business of creating and licensing software in the field of
 computational chemistry and represents and warrants to the
 licensee that it is not a competitor of Gaussian, Inc. and that
 it will not use this program in any manner prohibited above.
 ---------------------------------------------------------------
  

 Cite this work as:
 Gaussian 16, Revision A.03,
 M. J. Frisch, G. W. Trucks, H. B. Schlegel, G. E. Scuseria, 
 M. A. Robb, J. R. Cheeseman, G. Scalmani, V. Barone, 
 G. A. Petersson, H. Nakatsuji, X. Li, M. Caricato, A. V. Marenich, 
 J. Bloino, B. G. Janesko, R. Gomperts, B. Mennucci, H. P. Hratchian, 
 J. V. Ortiz, A. F. Izmaylov, J. L. Sonnenberg, D. Williams-Young, 
 F. Ding, F. Lipparini, F. Egidi, J. Goings, B. Peng, A. Petrone, 
 T. Henderson, D. Ranasinghe, V. G. Zakrzewski, J. Gao, N. Rega, 
 G. Zheng, W. Liang, M. Hada, M. Ehara, K. Toyota, R. Fukuda, 
 J. Hasegawa, M. Ishida, T. Nakajima, Y. Honda, O. Kitao, H. Nakai, 
 T. Vreven, K. Throssell, J. A. Montgomery, Jr., J. E. Peralta, 
 F. Ogliaro, M. J. Bearpark, J. J. Heyd, E. N. Brothers, K. N. Kudin, 
 V. N. Staroverov, T. A. Keith, R. Kobayashi, J. Normand, 
 K. Raghavachari, A. P. Rendell, J. C. Burant, S. S. Iyengar, 
 J. Tomasi, M. Cossi, J. M. Millam, M. Klene, C. Adamo, R. Cammi, 
 J. W. Ochterski, R. L. Martin, K. Morokuma, O. Farkas, 
 J. B. Foresman, and D. J. Fox, Gaussian, Inc., Wallingford CT, 2016.
 
 ******************************************
 Gaussian 16:  ES64L-G16RevA.03 25-Dec-2016
                26-Dec-2024 
 ******************************************
 %nprocshared=4
 Will use up to    4 processors via shared memory.
 %mem=4GB
 ----------------
 # b3lyp/6-31g(d)
 ----------------
 1/38=1,172=1/1;
 2/12=2,17=6,18=5,40=1/2;
 3/5=1,6=6,7=1,11=2,25=1,30=1,74=-5/1,2,3;
 4//1;
 5/5=2,38=5/2;
 6/7=2,8=2,9=2,10=2,28=1/1;
 99/5=1,9=1/99;
 -----------------------
 tmpdir/M3_conf_0_30.gjf
 -----------------------
 Symbolic Z-matrix:
 Charge =  0 Multiplicity = 1
 C                     0.        0.        0. 
 C                     1.5422    0.        0. 
 H                     1.91511   0.        1.03071 
 H                    -0.41394   0.83281   0.50735 
 H                    -0.36623  -0.01248  -1.03643 
 H                    -0.36904  -0.92667   0.46283 
 H                     1.95813  -0.87173  -0.53881 
 H                     1.904     0.91824  -0.47475 
 
                          Input orientation:                          
 ---------------------------------------------------------------------
 Center     Atomic      Atomic             Coordinates (Angstroms)
 Number     Number       Type             X           Y           Z
 ---------------------------------------------------------------------
      1          6           0        0.000000    0.000000    0.000000
      2          6           0        1.542200    0.000000    0.000000
      3          1           0        1.915110    0.000000    1.030710
      4          1           0       -0.413940    0.832810    0.507350
      5          1           0       -0.366230   -0.012480   -1.036430
      6          1           0       -0.369040   -0.926670    0.462830
      7          1           0        1.958130   -0.871730   -0.538810
      8          1           0        1.904000    0.918240   -0.474750
 ---------------------------------------------------------------------
                    Distance matrix (angstroms):
                    1          2          3          4          5
     1  C    0.000000
     2  C    1.542200   0.000000
     3  H    2.174858   1.096095   0.000000
     4  H    1.059397   2.185740   2.528231   0.000000
     5  H    1.099303   2.171738   3.078593   1.760695   0.000000
     6  H    1.099600   2.173883   2.529535   1.760616   1.755999
     7  H    2.210091   1.105996   1.795872   3.102680   2.527565
     8  H    2.166511   1.095195   1.763434   2.518862   2.517075
                    6          7          8
     6  H    0.000000
     7  H    2.534171   0.000000
     8  H    3.073997   1.791934   0.000000
 Stoichiometry    C2H6
 Framework group  C1[X(C2H6)]
 Deg. of freedom    18
 Full point group                 C1      NOp   1
 Largest Abelian subgroup         C1      NOp   1
 Largest concise Abelian subgroup C1      NOp   1
                         Standard orientation:                         
 ---------------------------------------------------------------------
 Center     Atomic      Atomic             Coordinates (Angstroms)
 Number     Number       Type             X           Y           Z
 ---------------------------------------------------------------------
      1          6           0       -0.771114   -0.010918    0.000118
      2          6           0        0.771028    0.002351   -0.000877
      3          1           0        1.148375   -0.575430   -0.852466
      4          1           0       -1.176627   -0.988321    0.050774
      5          1           0       -1.141898    0.580452    0.849392
      6          1           0       -1.145065    0.490401   -0.904293
      7          1           0        1.178104    1.029650   -0.047487
      8          1           0        1.137625   -0.485349    0.908633
 ---------------------------------------------------------------------
 Rotational constants (GHZ):          79.8669412          19.8553365          19.7880314
 Standard basis: 6-31G(d) (6D, 7F)
 There are    42 symmetry adapted cartesian basis functions of A   symmetry.
 There are    42 symmetry adapted basis functions of A   symmetry.
    42 basis functions,    80 primitive gaussians,    42 cartesian basis functions
     9 alpha electrons        9 beta electrons
       nuclear repulsion energy        42.0933847601 Hartrees.
 NAtoms=    8 NActive=    8 NUniq=    8 SFac= 1.00D+00 NAtFMM=   60 NAOKFM=F Big=F
 Integral buffers will be    131072 words long.
 Raffenetti 2 integral format.
 Two-electron integral symmetry is turned on.
 One-electron integrals computed using PRISM.
 NBasis=    42 RedAO= T EigKep=  8.49D-03  NBF=    42
 NBsUse=    42 1.00D-06 EigRej= -1.00D+00 NBFU=    42
 ExpMin= 1.61D-01 ExpMax= 3.05D+03 ExpMxC= 4.57D+02 IAcc=3 IRadAn=         5 AccDes= 0.00D+00
 Harris functional with IExCor=  402 and IRadAn=       5 diagonalized for initial guess.
 HarFok:  IExCor=  402 AccDes= 0.00D+00 IRadAn=         5 IDoV= 1 UseB2=F ITyADJ=14
 ICtDFT=  3500011 ScaDFX=  1.000000  1.000000  1.000000  1.000000
 FoFCou: FMM=F IPFlag=           0 FMFlag=      100000 FMFlg1=           0
         NFxFlg=           0 DoJE=T BraDBF=F KetDBF=T FulRan=T
         wScrn=  0.000000 ICntrl=       500 IOpCl=  0 I1Cent=   200000004 NGrid=           0
         NMat0=    1 NMatS0=      1 NMatT0=    0 NMatD0=    1 NMtDS0=    0 NMtDT0=    0
 Petite list used in FoFCou.
 Keep R1 ints in memory in canonical form, NReq=3861446.
 Requested convergence on RMS density matrix=1.00D-08 within 128 cycles.
 Requested convergence on MAX density matrix=1.00D-06.
 Requested convergence on             energy=1.00D-06.
 No special actions if energy rises.
 Integral accuracy reduced to 1.0D-05 until final iterations.
 Initial convergence to 1.0D-05 achieved.  Increase integral accuracy.
 SCF Done:  E(RB3LYP) =  -79.8288101956     A.U. after   10 cycles
            NFock= 10  Conv=0.34D-08     -V/T= 2.0106

 **********************************************************************

            Population analysis using the SCF density.

 **********************************************************************

 Orbital symmetries:
       Occupied  (A) (A) (A) (A) (A) (A) (A) (A) (A)
       Virtual   (A) (A) (A) (A) (A) (A) (A) (A) (A) (A) (A) (A)
                 (A) (A) (A) (A) (A) (A) (A) (A) (A) (A) (A) (A)
                 (A) (A) (A) (A) (A) (A) (A) (A) (A)
 The electronic state is 1-A.
 Alpha  occ. eigenvalues --  -10.17338 -10.16942  -0.74663  -0.61202  -0.43495
 Alpha  occ. eigenvalues --   -0.42785  -0.35927  -0.34498  -0.33713
 Alpha virt. eigenvalues --    0.10404   0.15778   0.16611   0.16646   0.18465
 Alpha virt. eigenvalues --    0.19489   0.23711   0.51487   0.54172   0.54653
 Alpha virt. eigenvalues --    0.62324   0.64303   0.66367   0.88258   0.88538
 Alpha virt. eigenvalues --    0.90875   0.91609   0.93188   0.98702   1.06955
 Alpha virt. eigenvalues --    1.43938   1.51124   1.53631   1.92429   1.97205
 Alpha virt. eigenvalues --    2.01162   2.26220   2.28557   2.30012   2.34749
 Alpha virt. eigenvalues --    2.58401   4.14450   4.36705
          Condensed to atoms (all electrons):
               1          2          3          4          5          6
     1  C    5.014088   0.373969  -0.036331   0.387675   0.382606   0.382490
     2  C    0.373969   5.016269   0.382253  -0.032214  -0.036011  -0.035994
     3  H   -0.036331   0.382253   0.575821  -0.003319   0.004847  -0.003854
     4  H    0.387675  -0.032214  -0.003319   0.556086  -0.031479  -0.031510
     5  H    0.382606  -0.036011   0.004847  -0.031479   0.579211  -0.033474
     6  H    0.382490  -0.035994  -0.003854  -0.031510  -0.033474   0.579301
     7  H   -0.032066   0.382824  -0.030295   0.004267  -0.003576  -0.003534
     8  H   -0.037088   0.382212  -0.033081  -0.003430  -0.003926   0.004908
               7          8
     1  C   -0.032066  -0.037088
     2  C    0.382824   0.382212
     3  H   -0.030295  -0.033081
     4  H    0.004267  -0.003430
     5  H   -0.003576  -0.003926
     6  H   -0.003534   0.004908
     7  H    0.569673  -0.030590
     8  H   -0.030590   0.576991
 Mulliken charges:
               1
     1  C   -0.435343
     2  C   -0.433309
     3  H    0.143960
     4  H    0.153923
     5  H    0.141802
     6  H    0.141667
     7  H    0.143296
     8  H    0.144004
 Sum of Mulliken charges =  -0.00000
 Mulliken charges with hydrogens summed into heavy atoms:
               1
     1  C    0.002049
     2  C   -0.002049
 Electronic spatial extent (au):  <R**2>=            109.6712
 Charge=             -0.0000 electrons
 Dipole moment (field-independent basis, Debye):
    X=             -0.0178    Y=             -0.0253    Z=              0.0052  Tot=              0.0314
 Quadrupole moment (field-independent basis, Debye-Ang):
   XX=            -15.3341   YY=            -14.5516   ZZ=            -14.7737
   XY=              0.0885   XZ=             -0.0094   YZ=             -0.0050
 Traceless Quadrupole moment (field-independent basis, Debye-Ang):
   XX=             -0.4476   YY=              0.3348   ZZ=              0.1127
   XY=              0.0885   XZ=             -0.0094   YZ=             -0.0050
 Octapole moment (field-independent basis, Debye-Ang**2):
  XXX=             -0.2002  YYY=             -0.0711  ZZZ=              0.0170  XYY=             -0.0380
  XXY=             -0.0751  XXZ=             -0.0081  XZZ=             -0.0082  YZZ=             -0.0610
  YYZ=              0.0031  XYZ=              0.0125
 Hexadecapole moment (field-independent basis, Debye-Ang**3):
 XXXX=            -93.0201 YYYY=            -28.5129 ZZZZ=            -28.7068 XXXY=              0.4465
 XXXZ=             -0.0452 YYYX=              1.3452 YYYZ=              0.0063 ZZZX=              0.1674
 ZZZY=             -0.0242 XXYY=            -18.9389 XXZZ=            -19.4000 YYZZ=             -9.4623
 XXYZ=             -0.0091 YYXZ=             -0.1851 ZZXY=             -1.1308
 N-N= 4.209338476010D+01 E-N=-2.680062379632D+02  KE= 7.899127148842D+01
 1\1\GINC-NODE87\SP\RB3LYP\6-31G(d)\C2H6\YANZ\26-Dec-2024\0\\# b3lyp/6-
 31g(d)\\tmpdir/M3_conf_0_30.gjf\\0,1\C,0,0.,0.,0.\C,0,1.5422,0.,0.\H,0
 ,1.91511,0.,1.03071\H,0,-0.41394,0.83281,0.50735\H,0,-0.36623,-0.01248
 ,-1.03643\H,0,-0.36904,-0.92667,0.46283\H,0,1.95813,-0.87173,-0.53881\
 H,0,1.904,0.91824,-0.47475\\Version=ES64L-G16RevA.03\State=1-A\HF=-79.
 8288102\RMSD=3.427e-09\Dipole=-0.0070812,0.0093198,0.0039093\Quadrupol
 e=-0.3315836,0.1990128,0.1325707,-0.0625841,-0.0339257,0.0750282\PG=C0
 1 [X(C2H6)]\\@


 IF YOU BELIEVE CERTAIN WORDS, YOU BELIEVE THEIR HIDDEN ARGUMENTS.
 WHEN YOU BELIEVE SOMETHING IS RIGHT OR WRONG, TRUE OR FALSE, 
 YOU BELIEVE THE ASSUMPTIONS IN THE WORDS WHICH EXPRESS THE ARGUMENTS.
 SUCH ASSUMPTIONS ARE OFTEN FULL OF HOLES, BUT REMAIN MOST PRECIOUS 
 TO THE CONVINCED.

                 -- THE OPEN-ENDED PROOF FROM THE PANOPLIA PROPHETICA
                    CHILDREN OF DUNE BY FRANK HERBERT
 Job cpu time:       0 days  0 hours  0 minutes  8.3 seconds.
 Elapsed time:       0 days  0 hours  0 minutes  2.2 seconds.
 File lengths (MBytes):  RWF=      6 Int=      0 D2E=      0 Chk=      1 Scr=      1
 Normal termination of Gaussian 16 at Thu Dec 26 10:46:24 2024.
