 Entering Gaussian System, Link 0=g16
 Initial command:
 /share/apps/gaussian/g16/l1.exe "/tmp/103466.mgr/Gau-121368.inp" -scrdir="/tmp/103466.mgr/"
 Entering Link 1 = /share/apps/gaussian/g16/l1.exe PID=    121372.
  
 Copyright (c) 1988,1990,1992,1993,1995,1998,2003,2009,2016,
            Gaussian, Inc.  All Rights Reserved.
  
 This is part of the Gaussian(R) 16 program.  It is based on
 the Gaussian(R) 09 system (copyright 2009, Gaussian, Inc.),
 the Gaussian(R) 03 system (copyright 2003, Gaussian, Inc.),
 the Gaussian(R) 98 system (copyright 1998, Gaussian, Inc.),
 the Gaussian(R) 94 system (copyright 1995, Gaussian, Inc.),
 the Gaussian 92(TM) system (copyright 1992, Gaussian, Inc.),
 the Gaussian 90(TM) system (copyright 1990, Gaussian, Inc.),
 the Gaussian 88(TM) system (copyright 1988, Gaussian, Inc.),
 the Gaussian 86(TM) system (copyright 1986, Carnegie Mellon
 University), and the Gaussian 82(TM) system (copyright 1983,
 Carnegie Mellon University). Gaussian is a federally registered
 trademark of Gaussian, Inc.
  
 This software contains proprietary and confidential information,
 including trade secrets, belonging to Gaussian, Inc.
  
 This software is provided under written license and may be
 used, copied, transmitted, or stored only in accord with that
 written license.
  
 The following legend is applicable only to US Government
 contracts under FAR:
  
                    RESTRICTED RIGHTS LEGEND
  
 Use, reproduction and disclosure by the US Government is
 subject to restrictions as set forth in subparagraphs (a)
 and (c) of the Commercial Computer Software - Restricted
 Rights clause in FAR 52.227-19.
  
 Gaussian, Inc.
 340 Quinnipiac St., Bldg. 40, Wallingford CT 06492
  
  
 ---------------------------------------------------------------
 Warning -- This program may not be used in any manner that
 competes with the business of Gaussian, Inc. or will provide
 assistance to any competitor of Gaussian, Inc.  The licensee
 of this program is prohibited from giving any competitor of
 Gaussian, Inc. access to this program.  By using this program,
 the user acknowledges that Gaussian, Inc. is engaged in the
 business of creating and licensing software in the field of
 computational chemistry and represents and warrants to the
 licensee that it is not a competitor of Gaussian, Inc. and that
 it will not use this program in any manner prohibited above.
 ---------------------------------------------------------------
  

 Cite this work as:
 Gaussian 16, Revision A.03,
 M. J. Frisch, G. W. Trucks, H. B. Schlegel, G. E. Scuseria, 
 M. A. Robb, J. R. Cheeseman, G. Scalmani, V. Barone, 
 G. A. Petersson, H. Nakatsuji, X. Li, M. Caricato, A. V. Marenich, 
 J. Bloino, B. G. Janesko, R. Gomperts, B. Mennucci, H. P. Hratchian, 
 J. V. Ortiz, A. F. Izmaylov, J. L. Sonnenberg, D. Williams-Young, 
 F. Ding, F. Lipparini, F. Egidi, J. Goings, B. Peng, A. Petrone, 
 T. Henderson, D. Ranasinghe, V. G. Zakrzewski, J. Gao, N. Rega, 
 G. Zheng, W. Liang, M. Hada, M. Ehara, K. Toyota, R. Fukuda, 
 J. Hasegawa, M. Ishida, T. Nakajima, Y. Honda, O. Kitao, H. Nakai, 
 T. Vreven, K. Throssell, J. A. Montgomery, Jr., J. E. Peralta, 
 F. Ogliaro, M. J. Bearpark, J. J. Heyd, E. N. Brothers, K. N. Kudin, 
 V. N. Staroverov, T. A. Keith, R. Kobayashi, J. Normand, 
 K. Raghavachari, A. P. Rendell, J. C. Burant, S. S. Iyengar, 
 J. Tomasi, M. Cossi, J. M. Millam, M. Klene, C. Adamo, R. Cammi, 
 J. W. Ochterski, R. L. Martin, K. Morokuma, O. Farkas, 
 J. B. Foresman, and D. J. Fox, Gaussian, Inc., Wallingford CT, 2016.
 
 ******************************************
 Gaussian 16:  ES64L-G16RevA.03 25-Dec-2016
                26-Dec-2024 
 ******************************************
 %nprocshared=4
 Will use up to    4 processors via shared memory.
 %mem=4GB
 ----------------
 # b3lyp/6-31g(d)
 ----------------
 1/38=1,172=1/1;
 2/12=2,17=6,18=5,40=1/2;
 3/5=1,6=6,7=1,11=2,25=1,30=1,74=-5/1,2,3;
 4//1;
 5/5=2,38=5/2;
 6/7=2,8=2,9=2,10=2,28=1/1;
 99/5=1,9=1/99;
 -----------------------
 tmpdir/M3_conf_0_33.gjf
 -----------------------
 Symbolic Z-matrix:
 Charge =  0 Multiplicity = 1
 C                     0.        0.        0. 
 C                     1.5278    0.        0. 
 H                     1.91475   0.        1.02457 
 H                    -0.41722   0.92232   0.55134 
 H                    -0.38099   0.0669   -1.02889 
 H                    -0.37863  -0.93895   0.43724 
 H                     1.94764  -0.88567  -0.53448 
 H                     1.89062   0.92231  -0.46812 
 
                          Input orientation:                          
 ---------------------------------------------------------------------
 Center     Atomic      Atomic             Coordinates (Angstroms)
 Number     Number       Type             X           Y           Z
 ---------------------------------------------------------------------
      1          6           0        0.000000    0.000000    0.000000
      2          6           0        1.527800    0.000000    0.000000
      3          1           0        1.914750    0.000000    1.024570
      4          1           0       -0.417220    0.922320    0.551340
      5          1           0       -0.380990    0.066900   -1.028890
      6          1           0       -0.378630   -0.938950    0.437240
      7          1           0        1.947640   -0.885670   -0.534480
      8          1           0        1.890620    0.922310   -0.468120
 ---------------------------------------------------------------------
                    Distance matrix (angstroms):
                    1          2          3          4          5
     1  C    0.000000
     2  C    1.527800   0.000000
     3  H    2.171638   1.095205   0.000000
     4  H    1.152702   2.222105   2.552000   0.000000
     5  H    1.099201   2.169463   3.080843   1.797271   0.000000
     6  H    1.102799   2.169627   2.546797   1.865163   1.777998
     7  H    2.205308   1.116399   1.793357   3.168658   2.564049
     8  H    2.155049   1.096098   1.754811   2.522979   2.491265
                    6          7          8
     6  H    0.000000
     7  H    2.521629   0.000000
     8  H    3.071394   1.810096   0.000000
 Stoichiometry    C2H6
 Framework group  C1[X(C2H6)]
 Deg. of freedom    18
 Full point group                 C1      NOp   1
 Largest Abelian subgroup         C1      NOp   1
 Largest concise Abelian subgroup C1      NOp   1
                         Standard orientation:                         
 ---------------------------------------------------------------------
 Center     Atomic      Atomic             Coordinates (Angstroms)
 Number     Number       Type             X           Y           Z
 ---------------------------------------------------------------------
      1          6           0        0.763417   -0.010200   -0.006658
      2          6           0       -0.764313    0.001349    0.002311
      3          1           0       -1.155169    0.256502   -0.988447
      4          1           0        1.186597    1.016282   -0.316456
      5          1           0        1.148917   -0.201533    1.004789
      6          1           0        1.132119   -0.815448   -0.663774
      7          1           0       -1.189856   -0.985442    0.304805
      8          1           0       -1.117233    0.782748    0.685168
 ---------------------------------------------------------------------
 Rotational constants (GHZ):          77.3943608          20.0633623          19.8263411
 Standard basis: 6-31G(d) (6D, 7F)
 There are    42 symmetry adapted cartesian basis functions of A   symmetry.
 There are    42 symmetry adapted basis functions of A   symmetry.
    42 basis functions,    80 primitive gaussians,    42 cartesian basis functions
     9 alpha electrons        9 beta electrons
       nuclear repulsion energy        41.8912547150 Hartrees.
 NAtoms=    8 NActive=    8 NUniq=    8 SFac= 1.00D+00 NAtFMM=   60 NAOKFM=F Big=F
 Integral buffers will be    131072 words long.
 Raffenetti 2 integral format.
 Two-electron integral symmetry is turned on.
 One-electron integrals computed using PRISM.
 NBasis=    42 RedAO= T EigKep=  8.44D-03  NBF=    42
 NBsUse=    42 1.00D-06 EigRej= -1.00D+00 NBFU=    42
 ExpMin= 1.61D-01 ExpMax= 3.05D+03 ExpMxC= 4.57D+02 IAcc=3 IRadAn=         5 AccDes= 0.00D+00
 Harris functional with IExCor=  402 and IRadAn=       5 diagonalized for initial guess.
 HarFok:  IExCor=  402 AccDes= 0.00D+00 IRadAn=         5 IDoV= 1 UseB2=F ITyADJ=14
 ICtDFT=  3500011 ScaDFX=  1.000000  1.000000  1.000000  1.000000
 FoFCou: FMM=F IPFlag=           0 FMFlag=      100000 FMFlg1=           0
         NFxFlg=           0 DoJE=T BraDBF=F KetDBF=T FulRan=T
         wScrn=  0.000000 ICntrl=       500 IOpCl=  0 I1Cent=   200000004 NGrid=           0
         NMat0=    1 NMatS0=      1 NMatT0=    0 NMatD0=    1 NMtDS0=    0 NMtDT0=    0
 Petite list used in FoFCou.
 Keep R1 ints in memory in canonical form, NReq=3861446.
 Requested convergence on RMS density matrix=1.00D-08 within 128 cycles.
 Requested convergence on MAX density matrix=1.00D-06.
 Requested convergence on             energy=1.00D-06.
 No special actions if energy rises.
 Integral accuracy reduced to 1.0D-05 until final iterations.
 Initial convergence to 1.0D-05 achieved.  Increase integral accuracy.
 SCF Done:  E(RB3LYP) =  -79.8275020100     A.U. after   11 cycles
            NFock= 11  Conv=0.85D-09     -V/T= 2.0120

 **********************************************************************

            Population analysis using the SCF density.

 **********************************************************************

 Orbital symmetries:
       Occupied  (A) (A) (A) (A) (A) (A) (A) (A) (A)
       Virtual   (A) (A) (A) (A) (A) (A) (A) (A) (A) (A) (A) (A)
                 (A) (A) (A) (A) (A) (A) (A) (A) (A) (A) (A) (A)
                 (A) (A) (A) (A) (A) (A) (A) (A) (A)
 The electronic state is 1-A.
 Alpha  occ. eigenvalues --  -10.17883 -10.17430  -0.74653  -0.60594  -0.43317
 Alpha  occ. eigenvalues --   -0.42648  -0.36018  -0.34106  -0.33479
 Alpha virt. eigenvalues --    0.10008   0.14724   0.16007   0.16367   0.18486
 Alpha virt. eigenvalues --    0.18780   0.24056   0.51129   0.54541   0.55733
 Alpha virt. eigenvalues --    0.62525   0.64822   0.66794   0.85952   0.87870
 Alpha virt. eigenvalues --    0.88026   0.91705   0.92166   0.96693   1.06353
 Alpha virt. eigenvalues --    1.43161   1.52286   1.52944   1.93267   1.97311
 Alpha virt. eigenvalues --    2.00646   2.22319   2.28115   2.30777   2.31443
 Alpha virt. eigenvalues --    2.58954   4.13769   4.36011
          Condensed to atoms (all electrons):
               1          2          3          4          5          6
     1  C    5.021052   0.372352  -0.035885   0.376182   0.380491   0.381493
     2  C    0.372352   5.017979   0.382319  -0.033779  -0.036571  -0.037638
     3  H   -0.035885   0.382319   0.576227  -0.004073   0.004946  -0.003657
     4  H    0.376182  -0.033779  -0.004073   0.588151  -0.033316  -0.025547
     5  H    0.380491  -0.036571   0.004946  -0.033316   0.580114  -0.032930
     6  H    0.381493  -0.037638  -0.003657  -0.025547  -0.032930   0.571814
     7  H   -0.033753   0.380606  -0.031308   0.004229  -0.003371  -0.003436
     8  H   -0.037326   0.382197  -0.034164  -0.003108  -0.004602   0.004957
               7          8
     1  C   -0.033753  -0.037326
     2  C    0.380606   0.382197
     3  H   -0.031308  -0.034164
     4  H    0.004229  -0.003108
     5  H   -0.003371  -0.004602
     6  H   -0.003436   0.004957
     7  H    0.575203  -0.028566
     8  H   -0.028566   0.575978
 Mulliken charges:
               1
     1  C   -0.424605
     2  C   -0.427464
     3  H    0.145595
     4  H    0.131261
     5  H    0.145238
     6  H    0.144944
     7  H    0.140397
     8  H    0.144634
 Sum of Mulliken charges =  -0.00000
 Mulliken charges with hydrogens summed into heavy atoms:
               1
     1  C   -0.003162
     2  C    0.003162
 Electronic spatial extent (au):  <R**2>=            110.1393
 Charge=             -0.0000 electrons
 Dipole moment (field-independent basis, Debye):
    X=             -0.0237    Y=             -0.0094    Z=              0.0240  Tot=              0.0350
 Quadrupole moment (field-independent basis, Debye-Ang):
   XX=            -15.4726   YY=            -14.5905   ZZ=            -14.8639
   XY=              0.0133   XZ=              0.0801   YZ=              0.0442
 Traceless Quadrupole moment (field-independent basis, Debye-Ang):
   XX=             -0.4969   YY=              0.3852   ZZ=              0.1117
   XY=              0.0133   XZ=              0.0801   YZ=              0.0442
 Octapole moment (field-independent basis, Debye-Ang**2):
  XXX=             -0.2277  YYY=             -0.0767  ZZZ=              0.0958  XYY=             -0.0108
  XXY=             -0.0437  XXZ=              0.0465  XZZ=             -0.0610  YZZ=              0.0048
  YYZ=             -0.0327  XYZ=              0.0892
 Hexadecapole moment (field-independent basis, Debye-Ang**3):
 XXXX=            -93.3294 YYYY=            -29.7915 ZZZZ=            -28.7821 XXXY=              0.0458
 XXXZ=              0.2926 YYYX=              0.6240 YYYZ=              0.1333 ZZZX=              1.1413
 ZZZY=              0.0776 XXYY=            -19.1727 XXZZ=            -19.4193 YYZZ=             -9.7696
 XXYZ=             -0.0272 YYXZ=             -0.9833 ZZXY=             -0.7788
 N-N= 4.189125471504D+01 E-N=-2.675159621873D+02  KE= 7.888139615673D+01
 1\1\GINC-NODE87\SP\RB3LYP\6-31G(d)\C2H6\YANZ\26-Dec-2024\0\\# b3lyp/6-
 31g(d)\\tmpdir/M3_conf_0_33.gjf\\0,1\C,0,0.,0.,0.\C,0,1.5278,0.,0.\H,0
 ,1.91475,0.,1.02457\H,0,-0.41722,0.92232,0.55134\H,0,-0.38099,0.0669,-
 1.02889\H,0,-0.37863,-0.93895,0.43724\H,0,1.94764,-0.88567,-0.53448\H,
 0,1.89062,0.92231,-0.46812\\Version=ES64L-G16RevA.03\State=1-A\HF=-79.
 827502\RMSD=8.477e-10\Dipole=0.0093641,-0.0013549,-0.0100129\Quadrupol
 e=-0.3702444,0.2901191,0.0801253,-0.0185444,0.053707,0.0190511\PG=C01 
 [X(C2H6)]\\@


 THE GREAT THING ABOUT BEING IMPERFECT IS THE JOY IT BRINGS OTHERS.
   -- SIGN OUTSIDE LAKE AGASSIZ JR. HIGH SCHOOL, FARGO, N.D.
 Job cpu time:       0 days  0 hours  0 minutes  9.1 seconds.
 Elapsed time:       0 days  0 hours  0 minutes  2.4 seconds.
 File lengths (MBytes):  RWF=      6 Int=      0 D2E=      0 Chk=      1 Scr=      1
 Normal termination of Gaussian 16 at Thu Dec 26 10:46:27 2024.
