 Entering Gaussian System, Link 0=g16
 Initial command:
 /share/apps/gaussian/g16/l1.exe "/tmp/103466.mgr/Gau-120950.inp" -scrdir="/tmp/103466.mgr/"
 Entering Link 1 = /share/apps/gaussian/g16/l1.exe PID=    120951.
  
 Copyright (c) 1988,1990,1992,1993,1995,1998,2003,2009,2016,
            Gaussian, Inc.  All Rights Reserved.
  
 This is part of the Gaussian(R) 16 program.  It is based on
 the Gaussian(R) 09 system (copyright 2009, Gaussian, Inc.),
 the Gaussian(R) 03 system (copyright 2003, Gaussian, Inc.),
 the Gaussian(R) 98 system (copyright 1998, Gaussian, Inc.),
 the Gaussian(R) 94 system (copyright 1995, Gaussian, Inc.),
 the Gaussian 92(TM) system (copyright 1992, Gaussian, Inc.),
 the Gaussian 90(TM) system (copyright 1990, Gaussian, Inc.),
 the Gaussian 88(TM) system (copyright 1988, Gaussian, Inc.),
 the Gaussian 86(TM) system (copyright 1986, Carnegie Mellon
 University), and the Gaussian 82(TM) system (copyright 1983,
 Carnegie Mellon University). Gaussian is a federally registered
 trademark of Gaussian, Inc.
  
 This software contains proprietary and confidential information,
 including trade secrets, belonging to Gaussian, Inc.
  
 This software is provided under written license and may be
 used, copied, transmitted, or stored only in accord with that
 written license.
  
 The following legend is applicable only to US Government
 contracts under FAR:
  
                    RESTRICTED RIGHTS LEGEND
  
 Use, reproduction and disclosure by the US Government is
 subject to restrictions as set forth in subparagraphs (a)
 and (c) of the Commercial Computer Software - Restricted
 Rights clause in FAR 52.227-19.
  
 Gaussian, Inc.
 340 Quinnipiac St., Bldg. 40, Wallingford CT 06492
  
  
 ---------------------------------------------------------------
 Warning -- This program may not be used in any manner that
 competes with the business of Gaussian, Inc. or will provide
 assistance to any competitor of Gaussian, Inc.  The licensee
 of this program is prohibited from giving any competitor of
 Gaussian, Inc. access to this program.  By using this program,
 the user acknowledges that Gaussian, Inc. is engaged in the
 business of creating and licensing software in the field of
 computational chemistry and represents and warrants to the
 licensee that it is not a competitor of Gaussian, Inc. and that
 it will not use this program in any manner prohibited above.
 ---------------------------------------------------------------
  

 Cite this work as:
 Gaussian 16, Revision A.03,
 M. J. Frisch, G. W. Trucks, H. B. Schlegel, G. E. Scuseria, 
 M. A. Robb, J. R. Cheeseman, G. Scalmani, V. Barone, 
 G. A. Petersson, H. Nakatsuji, X. Li, M. Caricato, A. V. Marenich, 
 J. Bloino, B. G. Janesko, R. Gomperts, B. Mennucci, H. P. Hratchian, 
 J. V. Ortiz, A. F. Izmaylov, J. L. Sonnenberg, D. Williams-Young, 
 F. Ding, F. Lipparini, F. Egidi, J. Goings, B. Peng, A. Petrone, 
 T. Henderson, D. Ranasinghe, V. G. Zakrzewski, J. Gao, N. Rega, 
 G. Zheng, W. Liang, M. Hada, M. Ehara, K. Toyota, R. Fukuda, 
 J. Hasegawa, M. Ishida, T. Nakajima, Y. Honda, O. Kitao, H. Nakai, 
 T. Vreven, K. Throssell, J. A. Montgomery, Jr., J. E. Peralta, 
 F. Ogliaro, M. J. Bearpark, J. J. Heyd, E. N. Brothers, K. N. Kudin, 
 V. N. Staroverov, T. A. Keith, R. Kobayashi, J. Normand, 
 K. Raghavachari, A. P. Rendell, J. C. Burant, S. S. Iyengar, 
 J. Tomasi, M. Cossi, J. M. Millam, M. Klene, C. Adamo, R. Cammi, 
 J. W. Ochterski, R. L. Martin, K. Morokuma, O. Farkas, 
 J. B. Foresman, and D. J. Fox, Gaussian, Inc., Wallingford CT, 2016.
 
 ******************************************
 Gaussian 16:  ES64L-G16RevA.03 25-Dec-2016
                26-Dec-2024 
 ******************************************
 %nprocshared=4
 Will use up to    4 processors via shared memory.
 %mem=4GB
 ----------------
 # b3lyp/6-31g(d)
 ----------------
 1/38=1,172=1/1;
 2/12=2,17=6,18=5,40=1/2;
 3/5=1,6=6,7=1,11=2,25=1,30=1,74=-5/1,2,3;
 4//1;
 5/5=2,38=5/2;
 6/7=2,8=2,9=2,10=2,28=1/1;
 99/5=1,9=1/99;
 -----------------------
 tmpdir/M3_conf_0_26.gjf
 -----------------------
 Symbolic Z-matrix:
 Charge =  0 Multiplicity = 1
 H                     0.        0.        0. 
 C                     1.1028    0.        0. 
 C                     1.68771   0.        1.4114 
 H                     1.5262    0.88914  -0.59906 
 H                     1.43681  -0.90454  -0.52772 
 H                     1.31516  -0.8584    2.02025 
 H                     2.78157  -0.03501   1.35082 
 H                     1.42029   0.9388    1.908 
 
                          Input orientation:                          
 ---------------------------------------------------------------------
 Center     Atomic      Atomic             Coordinates (Angstroms)
 Number     Number       Type             X           Y           Z
 ---------------------------------------------------------------------
      1          1           0        0.000000    0.000000    0.000000
      2          6           0        1.102800    0.000000    0.000000
      3          6           0        1.687710    0.000000    1.411400
      4          1           0        1.526200    0.889140   -0.599060
      5          1           0        1.436810   -0.904540   -0.527720
      6          1           0        1.315160   -0.858400    2.020250
      7          1           0        2.781570   -0.035010    1.350820
      8          1           0        1.420290    0.938800    1.908000
 ---------------------------------------------------------------------
                    Distance matrix (angstroms):
                    1          2          3          4          5
     1  H    0.000000
     2  C    1.102800   0.000000
     3  C    2.200094   1.527799   0.000000
     4  H    1.865135   1.152697   2.204224   0.000000
     5  H    1.777949   1.099201   2.154375   1.797322   0.000000
     6  H    2.558888   2.205302   1.116397   3.155823   2.551290
     7  H    3.092422   2.155043   1.096095   2.496405   2.468476
     8  H    2.557153   2.150025   1.095203   2.509787   3.054653
                    6          7          8
     6  H    0.000000
     7  H    1.810101   0.000000
     8  H    1.803768   1.764040   0.000000
 Stoichiometry    C2H6
 Framework group  C1[X(C2H6)]
 Deg. of freedom    18
 Full point group                 C1      NOp   1
 Largest Abelian subgroup         C1      NOp   1
 Largest concise Abelian subgroup C1      NOp   1
                         Standard orientation:                         
 ---------------------------------------------------------------------
 Center     Atomic      Atomic             Coordinates (Angstroms)
 Number     Number       Type             X           Y           Z
 ---------------------------------------------------------------------
      1          1           0        1.176207   -0.792743   -0.665809
      2          6           0        0.761921   -0.011833   -0.006480
      3          6           0       -0.765831   -0.001458   -0.000398
      4          1           0        1.159238    1.033348   -0.286559
      5          1           0        1.124295   -0.208245    1.012515
      6          1           0       -1.191283   -0.993590    0.284222
      7          1           0       -1.120663    0.767853    0.695072
      8          1           0       -1.124334    0.273126   -0.998170
 ---------------------------------------------------------------------
 Rotational constants (GHZ):          77.1034925          20.1085430          19.8843704
 Standard basis: 6-31G(d) (6D, 7F)
 There are    42 symmetry adapted cartesian basis functions of A   symmetry.
 There are    42 symmetry adapted basis functions of A   symmetry.
    42 basis functions,    80 primitive gaussians,    42 cartesian basis functions
     9 alpha electrons        9 beta electrons
       nuclear repulsion energy        41.9100877355 Hartrees.
 NAtoms=    8 NActive=    8 NUniq=    8 SFac= 1.00D+00 NAtFMM=   60 NAOKFM=F Big=F
 Integral buffers will be    131072 words long.
 Raffenetti 2 integral format.
 Two-electron integral symmetry is turned on.
 One-electron integrals computed using PRISM.
 NBasis=    42 RedAO= T EigKep=  8.38D-03  NBF=    42
 NBsUse=    42 1.00D-06 EigRej= -1.00D+00 NBFU=    42
 ExpMin= 1.61D-01 ExpMax= 3.05D+03 ExpMxC= 4.57D+02 IAcc=3 IRadAn=         5 AccDes= 0.00D+00
 Harris functional with IExCor=  402 and IRadAn=       5 diagonalized for initial guess.
 HarFok:  IExCor=  402 AccDes= 0.00D+00 IRadAn=         5 IDoV= 1 UseB2=F ITyADJ=14
 ICtDFT=  3500011 ScaDFX=  1.000000  1.000000  1.000000  1.000000
 FoFCou: FMM=F IPFlag=           0 FMFlag=      100000 FMFlg1=           0
         NFxFlg=           0 DoJE=T BraDBF=F KetDBF=T FulRan=T
         wScrn=  0.000000 ICntrl=       500 IOpCl=  0 I1Cent=   200000004 NGrid=           0
         NMat0=    1 NMatS0=      1 NMatT0=    0 NMatD0=    1 NMtDS0=    0 NMtDT0=    0
 Petite list used in FoFCou.
 Keep R1 ints in memory in canonical form, NReq=3861446.
 Requested convergence on RMS density matrix=1.00D-08 within 128 cycles.
 Requested convergence on MAX density matrix=1.00D-06.
 Requested convergence on             energy=1.00D-06.
 No special actions if energy rises.
 Integral accuracy reduced to 1.0D-05 until final iterations.
 Initial convergence to 1.0D-05 achieved.  Increase integral accuracy.
 SCF Done:  E(RB3LYP) =  -79.8272458312     A.U. after   11 cycles
            NFock= 11  Conv=0.93D-09     -V/T= 2.0120

 **********************************************************************

            Population analysis using the SCF density.

 **********************************************************************

 Orbital symmetries:
       Occupied  (A) (A) (A) (A) (A) (A) (A) (A) (A)
       Virtual   (A) (A) (A) (A) (A) (A) (A) (A) (A) (A) (A) (A)
                 (A) (A) (A) (A) (A) (A) (A) (A) (A) (A) (A) (A)
                 (A) (A) (A) (A) (A) (A) (A) (A) (A)
 The electronic state is 1-A.
 Alpha  occ. eigenvalues --  -10.17848 -10.17437  -0.74685  -0.60517  -0.43310
 Alpha  occ. eigenvalues --   -0.42807  -0.35866  -0.34152  -0.33468
 Alpha virt. eigenvalues --    0.09948   0.14859   0.15982   0.16402   0.18282
 Alpha virt. eigenvalues --    0.18893   0.23982   0.51081   0.54741   0.55749
 Alpha virt. eigenvalues --    0.62262   0.64784   0.66816   0.85815   0.87879
 Alpha virt. eigenvalues --    0.88132   0.91828   0.92085   0.96720   1.06492
 Alpha virt. eigenvalues --    1.43578   1.51514   1.53079   1.93507   1.97289
 Alpha virt. eigenvalues --    2.01339   2.22567   2.28050   2.29825   2.31709
 Alpha virt. eigenvalues --    2.59036   4.13818   4.36015
          Condensed to atoms (all electrons):
               1          2          3          4          5          6
     1  H    0.568297   0.381713  -0.034485  -0.025940  -0.033091  -0.003247
     2  C    0.381713   5.024603   0.371734   0.376324   0.380060  -0.033984
     3  C   -0.034485   0.371734   5.017157  -0.035497  -0.038556   0.380468
     4  H   -0.025940   0.376324  -0.035497   0.590644  -0.032695   0.004381
     5  H   -0.033091   0.380060  -0.038556  -0.032695   0.582840  -0.003392
     6  H   -0.003247  -0.033984   0.380468   0.004381  -0.003392   0.574383
     7  H    0.004694  -0.036499   0.382850  -0.003370  -0.004770  -0.029073
     8  H   -0.003540  -0.038616   0.382500  -0.004340   0.005280  -0.029924
               7          8
     1  H    0.004694  -0.003540
     2  C   -0.036499  -0.038616
     3  C    0.382850   0.382500
     4  H   -0.003370  -0.004340
     5  H   -0.004770   0.005280
     6  H   -0.029073  -0.029924
     7  H    0.574011  -0.033167
     8  H   -0.033167   0.576426
 Mulliken charges:
               1
     1  H    0.145598
     2  C   -0.425336
     3  C   -0.426171
     4  H    0.130495
     5  H    0.144324
     6  H    0.140387
     7  H    0.145323
     8  H    0.145380
 Sum of Mulliken charges =  -0.00000
 Mulliken charges with hydrogens summed into heavy atoms:
               1
     2  C   -0.004919
     3  C    0.004919
 Electronic spatial extent (au):  <R**2>=            109.9701
 Charge=             -0.0000 electrons
 Dipole moment (field-independent basis, Debye):
    X=             -0.0210    Y=             -0.0039    Z=              0.0287  Tot=              0.0357
 Quadrupole moment (field-independent basis, Debye-Ang):
   XX=            -15.5326   YY=            -14.5866   ZZ=            -14.8347
   XY=             -0.0390   XZ=             -0.0059   YZ=              0.0510
 Traceless Quadrupole moment (field-independent basis, Debye-Ang):
   XX=             -0.5479   YY=              0.3980   ZZ=              0.1499
   XY=             -0.0390   XZ=             -0.0059   YZ=              0.0510
 Octapole moment (field-independent basis, Debye-Ang**2):
  XXX=             -0.1541  YYY=             -0.0526  ZZZ=              0.0911  XYY=             -0.0192
  XXY=             -0.1558  XXZ=              0.0355  XZZ=             -0.0774  YZZ=              0.0229
  YYZ=             -0.0174  XYZ=              0.1222
 Hexadecapole moment (field-independent basis, Debye-Ang**3):
 XXXX=            -93.1873 YYYY=            -29.7806 ZZZZ=            -28.7660 XXXY=             -0.1823
 XXXZ=             -0.0635 YYYX=              0.6216 YYYZ=              0.1266 ZZZX=              1.0067
 ZZZY=              0.0678 XXYY=            -19.1161 XXZZ=            -19.4261 YYZZ=             -9.8021
 XXYZ=              0.0901 YYXZ=             -0.9748 ZZXY=             -0.8496
 N-N= 4.191008773547D+01 E-N=-2.675558010527D+02  KE= 7.888352042765D+01
 1\1\GINC-NODE87\SP\RB3LYP\6-31G(d)\C2H6\YANZ\26-Dec-2024\0\\# b3lyp/6-
 31g(d)\\tmpdir/M3_conf_0_26.gjf\\0,1\H,0,0.,0.,0.\C,0,1.1028,0.,0.\C,0
 ,1.68771,0.,1.4114\H,0,1.5262,0.88914,-0.59906\H,0,1.43681,-0.90454,-0
 .52772\H,0,1.31516,-0.8584,2.02025\H,0,2.78157,-0.03501,1.35082\H,0,1.
 42029,0.9388,1.908\\Version=ES64L-G16RevA.03\State=1-A\HF=-79.8272458\
 RMSD=9.304e-10\Dipole=0.0087649,-0.0096079,0.0053466\Quadrupole=0.1802
 15,0.1509056,-0.3311206,0.0844528,-0.213103,-0.016865\PG=C01 [X(C2H6)]
 \\@


 ALL OUR THINKING ABOUT NATURE MUST NECESSARILY MOVE IN CIRCLES OR SPIRALS;
 FOR WE CAN ONLY UNDERSTAND NATURE IF WE THINK ABOUT HER, AND WE CAN ONLY
 THINK BECAUSE OUR BRAIN IS BUILT IN ACCORDANCE WITH NATURE'S LAWS.

                                             -- TIMOTHY FERRIS, "GALAXIES"
 Job cpu time:       0 days  0 hours  0 minutes  9.4 seconds.
 Elapsed time:       0 days  0 hours  0 minutes  2.5 seconds.
 File lengths (MBytes):  RWF=      6 Int=      0 D2E=      0 Chk=      1 Scr=      1
 Normal termination of Gaussian 16 at Thu Dec 26 10:46:22 2024.
