 Entering Gaussian System, Link 0=g16
 Initial command:
 /share/apps/gaussian/g16/l1.exe "/tmp/103466.mgr/Gau-120470.inp" -scrdir="/tmp/103466.mgr/"
 Entering Link 1 = /share/apps/gaussian/g16/l1.exe PID=    120471.
  
 Copyright (c) 1988,1990,1992,1993,1995,1998,2003,2009,2016,
            Gaussian, Inc.  All Rights Reserved.
  
 This is part of the Gaussian(R) 16 program.  It is based on
 the Gaussian(R) 09 system (copyright 2009, Gaussian, Inc.),
 the Gaussian(R) 03 system (copyright 2003, Gaussian, Inc.),
 the Gaussian(R) 98 system (copyright 1998, Gaussian, Inc.),
 the Gaussian(R) 94 system (copyright 1995, Gaussian, Inc.),
 the Gaussian 92(TM) system (copyright 1992, Gaussian, Inc.),
 the Gaussian 90(TM) system (copyright 1990, Gaussian, Inc.),
 the Gaussian 88(TM) system (copyright 1988, Gaussian, Inc.),
 the Gaussian 86(TM) system (copyright 1986, Carnegie Mellon
 University), and the Gaussian 82(TM) system (copyright 1983,
 Carnegie Mellon University). Gaussian is a federally registered
 trademark of Gaussian, Inc.
  
 This software contains proprietary and confidential information,
 including trade secrets, belonging to Gaussian, Inc.
  
 This software is provided under written license and may be
 used, copied, transmitted, or stored only in accord with that
 written license.
  
 The following legend is applicable only to US Government
 contracts under FAR:
  
                    RESTRICTED RIGHTS LEGEND
  
 Use, reproduction and disclosure by the US Government is
 subject to restrictions as set forth in subparagraphs (a)
 and (c) of the Commercial Computer Software - Restricted
 Rights clause in FAR 52.227-19.
  
 Gaussian, Inc.
 340 Quinnipiac St., Bldg. 40, Wallingford CT 06492
  
  
 ---------------------------------------------------------------
 Warning -- This program may not be used in any manner that
 competes with the business of Gaussian, Inc. or will provide
 assistance to any competitor of Gaussian, Inc.  The licensee
 of this program is prohibited from giving any competitor of
 Gaussian, Inc. access to this program.  By using this program,
 the user acknowledges that Gaussian, Inc. is engaged in the
 business of creating and licensing software in the field of
 computational chemistry and represents and warrants to the
 licensee that it is not a competitor of Gaussian, Inc. and that
 it will not use this program in any manner prohibited above.
 ---------------------------------------------------------------
  

 Cite this work as:
 Gaussian 16, Revision A.03,
 M. J. Frisch, G. W. Trucks, H. B. Schlegel, G. E. Scuseria, 
 M. A. Robb, J. R. Cheeseman, G. Scalmani, V. Barone, 
 G. A. Petersson, H. Nakatsuji, X. Li, M. Caricato, A. V. Marenich, 
 J. Bloino, B. G. Janesko, R. Gomperts, B. Mennucci, H. P. Hratchian, 
 J. V. Ortiz, A. F. Izmaylov, J. L. Sonnenberg, D. Williams-Young, 
 F. Ding, F. Lipparini, F. Egidi, J. Goings, B. Peng, A. Petrone, 
 T. Henderson, D. Ranasinghe, V. G. Zakrzewski, J. Gao, N. Rega, 
 G. Zheng, W. Liang, M. Hada, M. Ehara, K. Toyota, R. Fukuda, 
 J. Hasegawa, M. Ishida, T. Nakajima, Y. Honda, O. Kitao, H. Nakai, 
 T. Vreven, K. Throssell, J. A. Montgomery, Jr., J. E. Peralta, 
 F. Ogliaro, M. J. Bearpark, J. J. Heyd, E. N. Brothers, K. N. Kudin, 
 V. N. Staroverov, T. A. Keith, R. Kobayashi, J. Normand, 
 K. Raghavachari, A. P. Rendell, J. C. Burant, S. S. Iyengar, 
 J. Tomasi, M. Cossi, J. M. Millam, M. Klene, C. Adamo, R. Cammi, 
 J. W. Ochterski, R. L. Martin, K. Morokuma, O. Farkas, 
 J. B. Foresman, and D. J. Fox, Gaussian, Inc., Wallingford CT, 2016.
 
 ******************************************
 Gaussian 16:  ES64L-G16RevA.03 25-Dec-2016
                26-Dec-2024 
 ******************************************
 %nprocshared=4
 Will use up to    4 processors via shared memory.
 %mem=4GB
 ----------------
 # b3lyp/6-31g(d)
 ----------------
 1/38=1,172=1/1;
 2/12=2,17=6,18=5,40=1/2;
 3/5=1,6=6,7=1,11=2,25=1,30=1,74=-5/1,2,3;
 4//1;
 5/5=2,38=5/2;
 6/7=2,8=2,9=2,10=2,28=1/1;
 99/5=1,9=1/99;
 ----------------------
 tmpdir/M3_conf_0_9.gjf
 ----------------------
 Symbolic Z-matrix:
 Charge =  0 Multiplicity = 1
 H                     0.        0.        0. 
 C                     1.0996    0.        0. 
 C                     1.6258    0.        1.44965 
 H                     1.44887   0.82614  -0.56376 
 H                     1.40261  -0.93276  -0.49659 
 H                     1.26095  -0.87155   2.02457 
 H                     1.31924   0.92268   1.95573 
 H                     2.72083  -0.01443   1.43707 
 
                          Input orientation:                          
 ---------------------------------------------------------------------
 Center     Atomic      Atomic             Coordinates (Angstroms)
 Number     Number       Type             X           Y           Z
 ---------------------------------------------------------------------
      1          1           0        0.000000    0.000000    0.000000
      2          6           0        1.099600    0.000000    0.000000
      3          6           0        1.625800    0.000000    1.449650
      4          1           0        1.448870    0.826140   -0.563760
      5          1           0        1.402610   -0.932760   -0.496590
      6          1           0        1.260950   -0.871550    2.024570
      7          1           0        1.319240    0.922680    1.955730
      8          1           0        2.720830   -0.014430    1.437070
 ---------------------------------------------------------------------
                    Distance matrix (angstroms):
                    1          2          3          4          5
     1  H    0.000000
     2  C    1.099600   0.000000
     3  C    2.178236   1.542197   0.000000
     4  H    1.760556   1.059397   2.183491   0.000000
     5  H    1.756120   1.099299   2.169725   1.760790   0.000000
     6  H    2.539385   2.210094   1.106005   3.101116   2.525878
     7  H    2.533103   2.173582   1.096100   2.524669   3.076277
     8  H    3.077059   2.166510   1.095197   2.515504   2.513976
                    6          7          8
     6  H    0.000000
     7  H    1.796496   0.000000
     8  H    1.791943   1.763984   0.000000
 Stoichiometry    C2H6
 Framework group  C1[X(C2H6)]
 Deg. of freedom    18
 Full point group                 C1      NOp   1
 Largest Abelian subgroup         C1      NOp   1
 Largest concise Abelian subgroup C1      NOp   1
                         Standard orientation:                         
 ---------------------------------------------------------------------
 Center     Atomic      Atomic             Coordinates (Angstroms)
 Number     Number       Type             X           Y           Z
 ---------------------------------------------------------------------
      1          1           0       -1.151255    0.480802   -0.907106
      2          6           0       -0.771008   -0.010697    0.000065
      3          6           0        0.771132    0.002546   -0.001342
      4          1           0       -1.173325   -0.988761    0.062148
      5          1           0       -1.138790    0.587695    0.845713
      6          1           0        1.178210    1.029355   -0.057895
      7          1           0        1.146520   -0.583784   -0.847945
      8          1           0        1.137893   -0.476398    0.912746
 ---------------------------------------------------------------------
 Rotational constants (GHZ):          79.8479627          19.8577212          19.7908819
 Standard basis: 6-31G(d) (6D, 7F)
 There are    42 symmetry adapted cartesian basis functions of A   symmetry.
 There are    42 symmetry adapted basis functions of A   symmetry.
    42 basis functions,    80 primitive gaussians,    42 cartesian basis functions
     9 alpha electrons        9 beta electrons
       nuclear repulsion energy        42.0942391907 Hartrees.
 NAtoms=    8 NActive=    8 NUniq=    8 SFac= 1.00D+00 NAtFMM=   60 NAOKFM=F Big=F
 Integral buffers will be    131072 words long.
 Raffenetti 2 integral format.
 Two-electron integral symmetry is turned on.
 One-electron integrals computed using PRISM.
 NBasis=    42 RedAO= T EigKep=  8.49D-03  NBF=    42
 NBsUse=    42 1.00D-06 EigRej= -1.00D+00 NBFU=    42
 ExpMin= 1.61D-01 ExpMax= 3.05D+03 ExpMxC= 4.57D+02 IAcc=3 IRadAn=         5 AccDes= 0.00D+00
 Harris functional with IExCor=  402 and IRadAn=       5 diagonalized for initial guess.
 HarFok:  IExCor=  402 AccDes= 0.00D+00 IRadAn=         5 IDoV= 1 UseB2=F ITyADJ=14
 ICtDFT=  3500011 ScaDFX=  1.000000  1.000000  1.000000  1.000000
 FoFCou: FMM=F IPFlag=           0 FMFlag=      100000 FMFlg1=           0
         NFxFlg=           0 DoJE=T BraDBF=F KetDBF=T FulRan=T
         wScrn=  0.000000 ICntrl=       500 IOpCl=  0 I1Cent=   200000004 NGrid=           0
         NMat0=    1 NMatS0=      1 NMatT0=    0 NMatD0=    1 NMtDS0=    0 NMtDT0=    0
 Petite list used in FoFCou.
 Keep R1 ints in memory in canonical form, NReq=3861446.
 Requested convergence on RMS density matrix=1.00D-08 within 128 cycles.
 Requested convergence on MAX density matrix=1.00D-06.
 Requested convergence on             energy=1.00D-06.
 No special actions if energy rises.
 Integral accuracy reduced to 1.0D-05 until final iterations.
 Initial convergence to 1.0D-05 achieved.  Increase integral accuracy.
 SCF Done:  E(RB3LYP) =  -79.8288282532     A.U. after   10 cycles
            NFock= 10  Conv=0.35D-08     -V/T= 2.0106

 **********************************************************************

            Population analysis using the SCF density.

 **********************************************************************

 Orbital symmetries:
       Occupied  (A) (A) (A) (A) (A) (A) (A) (A) (A)
       Virtual   (A) (A) (A) (A) (A) (A) (A) (A) (A) (A) (A) (A)
                 (A) (A) (A) (A) (A) (A) (A) (A) (A) (A) (A) (A)
                 (A) (A) (A) (A) (A) (A) (A) (A) (A)
 The electronic state is 1-A.
 Alpha  occ. eigenvalues --  -10.17338 -10.16940  -0.74665  -0.61197  -0.43498
 Alpha  occ. eigenvalues --   -0.42789  -0.35906  -0.34507  -0.33721
 Alpha virt. eigenvalues --    0.10402   0.15783   0.16614   0.16644   0.18472
 Alpha virt. eigenvalues --    0.19480   0.23705   0.51480   0.54194   0.54652
 Alpha virt. eigenvalues --    0.62347   0.64253   0.66364   0.88258   0.88553
 Alpha virt. eigenvalues --    0.90846   0.91615   0.93190   0.98712   1.06954
 Alpha virt. eigenvalues --    1.43934   1.51154   1.53585   1.92457   1.97294
 Alpha virt. eigenvalues --    2.01115   2.26281   2.28533   2.30034   2.34656
 Alpha virt. eigenvalues --    2.58411   4.14452   4.36706
          Condensed to atoms (all electrons):
               1          2          3          4          5          6
     1  H    0.578799   0.382520  -0.035535  -0.031567  -0.033499  -0.003501
     2  C    0.382520   5.014213   0.373959   0.387664   0.382583  -0.032107
     3  C   -0.035535   0.373959   5.016180  -0.032430  -0.036247   0.382804
     4  H   -0.031567   0.387664  -0.032430   0.556379  -0.031390   0.004285
     5  H   -0.033499   0.382583  -0.036247  -0.031390   0.579487  -0.003582
     6  H   -0.003501  -0.032107   0.382804   0.004285  -0.003582   0.569647
     7  H   -0.003825  -0.036508   0.382237  -0.003335   0.004875  -0.030196
     8  H    0.004869  -0.036982   0.382280  -0.003458  -0.003949  -0.030627
               7          8
     1  H   -0.003825   0.004869
     2  C   -0.036508  -0.036982
     3  C    0.382237   0.382280
     4  H   -0.003335  -0.003458
     5  H    0.004875  -0.003949
     6  H   -0.030196  -0.030627
     7  H    0.575856  -0.033031
     8  H   -0.033031   0.576821
 Mulliken charges:
               1
     1  H    0.141738
     2  C   -0.435342
     3  C   -0.433249
     4  H    0.153853
     5  H    0.141722
     6  H    0.143277
     7  H    0.143926
     8  H    0.144076
 Sum of Mulliken charges =   0.00000
 Mulliken charges with hydrogens summed into heavy atoms:
               1
     2  C    0.001970
     3  C   -0.001970
 Electronic spatial extent (au):  <R**2>=            109.6632
 Charge=              0.0000 electrons
 Dipole moment (field-independent basis, Debye):
    X=             -0.0178    Y=             -0.0261    Z=              0.0068  Tot=              0.0324
 Quadrupole moment (field-independent basis, Debye-Ang):
   XX=            -15.3379   YY=            -14.5515   ZZ=            -14.7715
   XY=              0.0851   XZ=             -0.0000   YZ=             -0.0071
 Traceless Quadrupole moment (field-independent basis, Debye-Ang):
   XX=             -0.4509   YY=              0.3355   ZZ=              0.1154
   XY=              0.0851   XZ=             -0.0000   YZ=             -0.0071
 Octapole moment (field-independent basis, Debye-Ang**2):
  XXX=             -0.2031  YYY=             -0.0738  ZZZ=              0.0230  XYY=             -0.0349
  XXY=             -0.0663  XXZ=             -0.0158  XZZ=             -0.0101  YZZ=             -0.0627
  YYZ=              0.0039  XYZ=              0.0162
 Hexadecapole moment (field-independent basis, Debye-Ang**3):
 XXXX=            -93.0191 YYYY=            -28.5113 ZZZZ=            -28.7061 XXXY=              0.4304
 XXXZ=             -0.0065 YYYX=              1.3368 YYYZ=              0.0033 ZZZX=              0.2104
 ZZZY=             -0.0246 XXYY=            -18.9448 XXZZ=            -19.3915 YYZZ=             -9.4636
 XXYZ=             -0.0259 YYXZ=             -0.2162 ZZXY=             -1.1268
 N-N= 4.209423919071D+01 E-N=-2.680081026725D+02  KE= 7.899134356475D+01
 1\1\GINC-NODE87\SP\RB3LYP\6-31G(d)\C2H6\YANZ\26-Dec-2024\0\\# b3lyp/6-
 31g(d)\\tmpdir/M3_conf_0_9.gjf\\0,1\H,0,0.,0.,0.\C,0,1.0996,0.,0.\C,0,
 1.6258,0.,1.44965\H,0,1.44887,0.82614,-0.56376\H,0,1.40261,-0.93276,-0
 .49659\H,0,1.26095,-0.87155,2.02457\H,0,1.31924,0.92268,1.95573\H,0,2.
 72083,-0.01443,1.43707\\Version=ES64L-G16RevA.03\State=1-A\HF=-79.8288
 283\RMSD=3.541e-09\Dipole=0.0043911,0.0076885,-0.0091525\Quadrupole=0.
 0524824,0.2066814,-0.2591637,0.0464552,-0.1734123,-0.0804319\PG=C01 [X
 (C2H6)]\\@


  DISAPPOINTMENT IS THE NURSE OF WISDOM.               
                              SIR BOYLE ROCHE                 
 Job cpu time:       0 days  0 hours  0 minutes  8.3 seconds.
 Elapsed time:       0 days  0 hours  0 minutes  2.2 seconds.
 File lengths (MBytes):  RWF=      6 Int=      0 D2E=      0 Chk=      1 Scr=      1
 Normal termination of Gaussian 16 at Thu Dec 26 10:46:17 2024.
