 Entering Gaussian System, Link 0=g16
 Initial command:
 /share/apps/gaussian/g16/l1.exe "/tmp/103466.mgr/Gau-120561.inp" -scrdir="/tmp/103466.mgr/"
 Entering Link 1 = /share/apps/gaussian/g16/l1.exe PID=    120562.
  
 Copyright (c) 1988,1990,1992,1993,1995,1998,2003,2009,2016,
            Gaussian, Inc.  All Rights Reserved.
  
 This is part of the Gaussian(R) 16 program.  It is based on
 the Gaussian(R) 09 system (copyright 2009, Gaussian, Inc.),
 the Gaussian(R) 03 system (copyright 2003, Gaussian, Inc.),
 the Gaussian(R) 98 system (copyright 1998, Gaussian, Inc.),
 the Gaussian(R) 94 system (copyright 1995, Gaussian, Inc.),
 the Gaussian 92(TM) system (copyright 1992, Gaussian, Inc.),
 the Gaussian 90(TM) system (copyright 1990, Gaussian, Inc.),
 the Gaussian 88(TM) system (copyright 1988, Gaussian, Inc.),
 the Gaussian 86(TM) system (copyright 1986, Carnegie Mellon
 University), and the Gaussian 82(TM) system (copyright 1983,
 Carnegie Mellon University). Gaussian is a federally registered
 trademark of Gaussian, Inc.
  
 This software contains proprietary and confidential information,
 including trade secrets, belonging to Gaussian, Inc.
  
 This software is provided under written license and may be
 used, copied, transmitted, or stored only in accord with that
 written license.
  
 The following legend is applicable only to US Government
 contracts under FAR:
  
                    RESTRICTED RIGHTS LEGEND
  
 Use, reproduction and disclosure by the US Government is
 subject to restrictions as set forth in subparagraphs (a)
 and (c) of the Commercial Computer Software - Restricted
 Rights clause in FAR 52.227-19.
  
 Gaussian, Inc.
 340 Quinnipiac St., Bldg. 40, Wallingford CT 06492
  
  
 ---------------------------------------------------------------
 Warning -- This program may not be used in any manner that
 competes with the business of Gaussian, Inc. or will provide
 assistance to any competitor of Gaussian, Inc.  The licensee
 of this program is prohibited from giving any competitor of
 Gaussian, Inc. access to this program.  By using this program,
 the user acknowledges that Gaussian, Inc. is engaged in the
 business of creating and licensing software in the field of
 computational chemistry and represents and warrants to the
 licensee that it is not a competitor of Gaussian, Inc. and that
 it will not use this program in any manner prohibited above.
 ---------------------------------------------------------------
  

 Cite this work as:
 Gaussian 16, Revision A.03,
 M. J. Frisch, G. W. Trucks, H. B. Schlegel, G. E. Scuseria, 
 M. A. Robb, J. R. Cheeseman, G. Scalmani, V. Barone, 
 G. A. Petersson, H. Nakatsuji, X. Li, M. Caricato, A. V. Marenich, 
 J. Bloino, B. G. Janesko, R. Gomperts, B. Mennucci, H. P. Hratchian, 
 J. V. Ortiz, A. F. Izmaylov, J. L. Sonnenberg, D. Williams-Young, 
 F. Ding, F. Lipparini, F. Egidi, J. Goings, B. Peng, A. Petrone, 
 T. Henderson, D. Ranasinghe, V. G. Zakrzewski, J. Gao, N. Rega, 
 G. Zheng, W. Liang, M. Hada, M. Ehara, K. Toyota, R. Fukuda, 
 J. Hasegawa, M. Ishida, T. Nakajima, Y. Honda, O. Kitao, H. Nakai, 
 T. Vreven, K. Throssell, J. A. Montgomery, Jr., J. E. Peralta, 
 F. Ogliaro, M. J. Bearpark, J. J. Heyd, E. N. Brothers, K. N. Kudin, 
 V. N. Staroverov, T. A. Keith, R. Kobayashi, J. Normand, 
 K. Raghavachari, A. P. Rendell, J. C. Burant, S. S. Iyengar, 
 J. Tomasi, M. Cossi, J. M. Millam, M. Klene, C. Adamo, R. Cammi, 
 J. W. Ochterski, R. L. Martin, K. Morokuma, O. Farkas, 
 J. B. Foresman, and D. J. Fox, Gaussian, Inc., Wallingford CT, 2016.
 
 ******************************************
 Gaussian 16:  ES64L-G16RevA.03 25-Dec-2016
                26-Dec-2024 
 ******************************************
 %nprocshared=4
 Will use up to    4 processors via shared memory.
 %mem=4GB
 ----------------
 # b3lyp/6-31g(d)
 ----------------
 1/38=1,172=1/1;
 2/12=2,17=6,18=5,40=1/2;
 3/5=1,6=6,7=1,11=2,25=1,30=1,74=-5/1,2,3;
 4//1;
 5/5=2,38=5/2;
 6/7=2,8=2,9=2,10=2,28=1/1;
 99/5=1,9=1/99;
 -----------------------
 tmpdir/M3_conf_0_12.gjf
 -----------------------
 Symbolic Z-matrix:
 Charge =  0 Multiplicity = 1
 N                     0.        0.        0. 
 C                     1.4585    0.        0. 
 H                    -0.34685   0.       -1.11154 
 H                    -0.31017   0.91599   0.32833 
 H                     1.75927   0.27346   1.02127 
 H                     1.86357   0.76381  -0.6846 
 H                     1.85882  -0.99676  -0.26354 
 
                          Input orientation:                          
 ---------------------------------------------------------------------
 Center     Atomic      Atomic             Coordinates (Angstroms)
 Number     Number       Type             X           Y           Z
 ---------------------------------------------------------------------
      1          7           0        0.000000    0.000000    0.000000
      2          6           0        1.458500    0.000000    0.000000
      3          1           0       -0.346850    0.000000   -1.111540
      4          1           0       -0.310170    0.915990    0.328330
      5          1           0        1.759270    0.273460    1.021270
      6          1           0        1.863570    0.763810   -0.684600
      7          1           0        1.858820   -0.996760   -0.263540
 ---------------------------------------------------------------------
                    Distance matrix (angstroms):
                    1          2          3          4          5
     1  N    0.000000
     2  C    1.458500   0.000000
     3  H    1.164399   2.120097   0.000000
     4  H    1.021295   2.018671   1.706930   0.000000
     5  H    2.052512   1.099198   3.009884   2.274993   0.000000
     6  H    2.127199   1.102799   2.377318   2.402984   1.778008
     7  H    2.125605   1.106002   2.564686   2.951854   1.809449
                    6          7
     6  H    0.000000
     7  H    1.810227   0.000000
 Stoichiometry    CH5N
 Framework group  C1[X(CH5N)]
 Deg. of freedom    15
 Full point group                 C1      NOp   1
 Largest Abelian subgroup         C1      NOp   1
 Largest concise Abelian subgroup C1      NOp   1
                         Standard orientation:                         
 ---------------------------------------------------------------------
 Center     Atomic      Atomic             Coordinates (Angstroms)
 Number     Number       Type             X           Y           Z
 ---------------------------------------------------------------------
      1          7           0        0.740952    0.025417   -0.153443
      2          6           0       -0.707115   -0.010911    0.016860
      3          1           0        1.175480   -0.920055    0.369140
      4          1           0        1.102523    0.784350    0.426498
      5          1           0       -1.064613    0.998353   -0.231771
      6          1           0       -0.986841   -0.217243    1.063448
      7          1           0       -1.170523   -0.757863   -0.654374
 ---------------------------------------------------------------------
 Rotational constants (GHZ):          94.9579704          22.9378872          22.0346878
 Standard basis: 6-31G(d) (6D, 7F)
 There are    40 symmetry adapted cartesian basis functions of A   symmetry.
 There are    40 symmetry adapted basis functions of A   symmetry.
    40 basis functions,    76 primitive gaussians,    40 cartesian basis functions
     9 alpha electrons        9 beta electrons
       nuclear repulsion energy        41.4736770056 Hartrees.
 NAtoms=    7 NActive=    7 NUniq=    7 SFac= 1.00D+00 NAtFMM=   60 NAOKFM=F Big=F
 Integral buffers will be    131072 words long.
 Raffenetti 2 integral format.
 Two-electron integral symmetry is turned on.
 One-electron integrals computed using PRISM.
 NBasis=    40 RedAO= T EigKep=  8.86D-03  NBF=    40
 NBsUse=    40 1.00D-06 EigRej= -1.00D+00 NBFU=    40
 ExpMin= 1.61D-01 ExpMax= 4.17D+03 ExpMxC= 6.27D+02 IAcc=3 IRadAn=         5 AccDes= 0.00D+00
 Harris functional with IExCor=  402 and IRadAn=       5 diagonalized for initial guess.
 HarFok:  IExCor=  402 AccDes= 0.00D+00 IRadAn=         5 IDoV= 1 UseB2=F ITyADJ=14
 ICtDFT=  3500011 ScaDFX=  1.000000  1.000000  1.000000  1.000000
 FoFCou: FMM=F IPFlag=           0 FMFlag=      100000 FMFlg1=           0
         NFxFlg=           0 DoJE=T BraDBF=F KetDBF=T FulRan=T
         wScrn=  0.000000 ICntrl=       500 IOpCl=  0 I1Cent=   200000004 NGrid=           0
         NMat0=    1 NMatS0=      1 NMatT0=    0 NMatD0=    1 NMtDS0=    0 NMtDT0=    0
 Petite list used in FoFCou.
 Keep R1 ints in memory in canonical form, NReq=3789243.
 Requested convergence on RMS density matrix=1.00D-08 within 128 cycles.
 Requested convergence on MAX density matrix=1.00D-06.
 Requested convergence on             energy=1.00D-06.
 No special actions if energy rises.
 Integral accuracy reduced to 1.0D-05 until final iterations.
 Initial convergence to 1.0D-05 achieved.  Increase integral accuracy.
 SCF Done:  E(RB3LYP) =  -95.8395405985     A.U. after   11 cycles
            NFock= 11  Conv=0.62D-08     -V/T= 2.0113

 **********************************************************************

            Population analysis using the SCF density.

 **********************************************************************

 Orbital symmetries:
       Occupied  (A) (A) (A) (A) (A) (A) (A) (A) (A)
       Virtual   (A) (A) (A) (A) (A) (A) (A) (A) (A) (A) (A) (A)
                 (A) (A) (A) (A) (A) (A) (A) (A) (A) (A) (A) (A)
                 (A) (A) (A) (A) (A) (A) (A)
 The electronic state is 1-A.
 Alpha  occ. eigenvalues --  -14.32201 -10.20090  -0.86323  -0.64562  -0.47060
 Alpha  occ. eigenvalues --   -0.43412  -0.39588  -0.35527  -0.23229
 Alpha virt. eigenvalues --    0.06196   0.12553   0.14206   0.17584   0.17974
 Alpha virt. eigenvalues --    0.23491   0.54676   0.56608   0.58983   0.72049
 Alpha virt. eigenvalues --    0.74598   0.79948   0.83321   0.87034   0.91580
 Alpha virt. eigenvalues --    0.91808   0.95496   1.06771   1.40627   1.50695
 Alpha virt. eigenvalues --    1.56710   1.85818   2.03035   2.05417   2.17439
 Alpha virt. eigenvalues --    2.30333   2.33876   2.36328   2.66006   3.74065
 Alpha virt. eigenvalues --    4.24034
          Condensed to atoms (all electrons):
               1          2          3          4          5          6
     1  N    6.909825   0.302078   0.293368   0.298890  -0.040704  -0.046449
     2  C    0.302078   4.939260  -0.042034  -0.041499   0.382541   0.373063
     3  H    0.293368  -0.042034   0.536885  -0.031503   0.006481  -0.009094
     4  H    0.298890  -0.041499  -0.031503   0.481399  -0.006329  -0.004448
     5  H   -0.040704   0.382541   0.006481  -0.006329   0.571288  -0.038362
     6  H   -0.046449   0.373063  -0.009094  -0.004448  -0.038362   0.644412
     7  H   -0.040365   0.383945  -0.001519   0.006317  -0.025627  -0.042520
               7
     1  N   -0.040365
     2  C    0.383945
     3  H   -0.001519
     4  H    0.006317
     5  H   -0.025627
     6  H   -0.042520
     7  H    0.564470
 Mulliken charges:
               1
     1  N   -0.676643
     2  C   -0.297354
     3  H    0.247416
     4  H    0.297172
     5  H    0.150711
     6  H    0.123398
     7  H    0.155299
 Sum of Mulliken charges =   0.00000
 Mulliken charges with hydrogens summed into heavy atoms:
               1
     1  N   -0.132054
     2  C    0.132054
 Electronic spatial extent (au):  <R**2>=             95.7226
 Charge=              0.0000 electrons
 Dipole moment (field-independent basis, Debye):
    X=             -0.3424    Y=             -0.0307    Z=              1.5850  Tot=              1.6218
 Quadrupole moment (field-independent basis, Debye-Ang):
   XX=            -14.1519   YY=            -12.5858   ZZ=            -15.0717
   XY=             -0.1220   XZ=              2.2614   YZ=              0.2043
 Traceless Quadrupole moment (field-independent basis, Debye-Ang):
   XX=             -0.2154   YY=              1.3507   ZZ=             -1.1352
   XY=             -0.1220   XZ=              2.2614   YZ=              0.2043
 Octapole moment (field-independent basis, Debye-Ang**2):
  XXX=              2.2452  YYY=              0.4055  ZZZ=              1.5407  XYY=              1.6695
  XXY=             -0.1707  XXZ=              2.1237  XZZ=             -0.4150  YZZ=             -0.1912
  YYZ=              0.5386  XYZ=             -0.0608
 Hexadecapole moment (field-independent basis, Debye-Ang**3):
 XXXX=            -74.6242 YYYY=            -24.2654 ZZZZ=            -24.2096 XXXY=              0.0934
 XXXZ=              3.9218 YYYX=             -0.5093 YYYZ=              0.1549 ZZZX=              1.7411
 ZZZY=              0.3345 XXYY=            -14.5165 XXZZ=            -17.0097 YYZZ=             -8.0001
 XXYZ=              0.3471 YYXZ=              1.7686 ZZXY=              0.3935
 N-N= 4.147367700558D+01 E-N=-3.053232351454D+02  KE= 9.476996707148D+01
 1\1\GINC-NODE87\SP\RB3LYP\6-31G(d)\C1H5N1\YANZ\26-Dec-2024\0\\# b3lyp/
 6-31g(d)\\tmpdir/M3_conf_0_12.gjf\\0,1\N,0,0.,0.,0.\C,0,1.4585,0.,0.\H
 ,0,-0.34685,0.,-1.11154\H,0,-0.31017,0.91599,0.32833\H,0,1.75927,0.273
 46,1.02127\H,0,1.86357,0.76381,-0.6846\H,0,1.85882,-0.99676,-0.26354\\
 Version=ES64L-G16RevA.03\State=1-A\HF=-95.8395406\RMSD=6.243e-09\Dipol
 e=0.2068638,0.5146929,-0.3153251\Quadrupole=-0.5639689,0.0230326,0.540
 9363,-1.439632,0.9394926,0.6858538\PG=C01 [X(C1H5N1)]\\@


 Until you make peace with who you are,
 you'll never be content with what you have.
                           -- Doris Mortman
 Job cpu time:       0 days  0 hours  0 minutes  8.2 seconds.
 Elapsed time:       0 days  0 hours  0 minutes  2.2 seconds.
 File lengths (MBytes):  RWF=      6 Int=      0 D2E=      0 Chk=      1 Scr=      1
 Normal termination of Gaussian 16 at Thu Dec 26 10:46:18 2024.
