 Entering Gaussian System, Link 0=g16
 Initial command:
 /share/apps/gaussian/g16/l1.exe "/tmp/103466.mgr/Gau-120833.inp" -scrdir="/tmp/103466.mgr/"
 Entering Link 1 = /share/apps/gaussian/g16/l1.exe PID=    120834.
  
 Copyright (c) 1988,1990,1992,1993,1995,1998,2003,2009,2016,
            Gaussian, Inc.  All Rights Reserved.
  
 This is part of the Gaussian(R) 16 program.  It is based on
 the Gaussian(R) 09 system (copyright 2009, Gaussian, Inc.),
 the Gaussian(R) 03 system (copyright 2003, Gaussian, Inc.),
 the Gaussian(R) 98 system (copyright 1998, Gaussian, Inc.),
 the Gaussian(R) 94 system (copyright 1995, Gaussian, Inc.),
 the Gaussian 92(TM) system (copyright 1992, Gaussian, Inc.),
 the Gaussian 90(TM) system (copyright 1990, Gaussian, Inc.),
 the Gaussian 88(TM) system (copyright 1988, Gaussian, Inc.),
 the Gaussian 86(TM) system (copyright 1986, Carnegie Mellon
 University), and the Gaussian 82(TM) system (copyright 1983,
 Carnegie Mellon University). Gaussian is a federally registered
 trademark of Gaussian, Inc.
  
 This software contains proprietary and confidential information,
 including trade secrets, belonging to Gaussian, Inc.
  
 This software is provided under written license and may be
 used, copied, transmitted, or stored only in accord with that
 written license.
  
 The following legend is applicable only to US Government
 contracts under FAR:
  
                    RESTRICTED RIGHTS LEGEND
  
 Use, reproduction and disclosure by the US Government is
 subject to restrictions as set forth in subparagraphs (a)
 and (c) of the Commercial Computer Software - Restricted
 Rights clause in FAR 52.227-19.
  
 Gaussian, Inc.
 340 Quinnipiac St., Bldg. 40, Wallingford CT 06492
  
  
 ---------------------------------------------------------------
 Warning -- This program may not be used in any manner that
 competes with the business of Gaussian, Inc. or will provide
 assistance to any competitor of Gaussian, Inc.  The licensee
 of this program is prohibited from giving any competitor of
 Gaussian, Inc. access to this program.  By using this program,
 the user acknowledges that Gaussian, Inc. is engaged in the
 business of creating and licensing software in the field of
 computational chemistry and represents and warrants to the
 licensee that it is not a competitor of Gaussian, Inc. and that
 it will not use this program in any manner prohibited above.
 ---------------------------------------------------------------
  

 Cite this work as:
 Gaussian 16, Revision A.03,
 M. J. Frisch, G. W. Trucks, H. B. Schlegel, G. E. Scuseria, 
 M. A. Robb, J. R. Cheeseman, G. Scalmani, V. Barone, 
 G. A. Petersson, H. Nakatsuji, X. Li, M. Caricato, A. V. Marenich, 
 J. Bloino, B. G. Janesko, R. Gomperts, B. Mennucci, H. P. Hratchian, 
 J. V. Ortiz, A. F. Izmaylov, J. L. Sonnenberg, D. Williams-Young, 
 F. Ding, F. Lipparini, F. Egidi, J. Goings, B. Peng, A. Petrone, 
 T. Henderson, D. Ranasinghe, V. G. Zakrzewski, J. Gao, N. Rega, 
 G. Zheng, W. Liang, M. Hada, M. Ehara, K. Toyota, R. Fukuda, 
 J. Hasegawa, M. Ishida, T. Nakajima, Y. Honda, O. Kitao, H. Nakai, 
 T. Vreven, K. Throssell, J. A. Montgomery, Jr., J. E. Peralta, 
 F. Ogliaro, M. J. Bearpark, J. J. Heyd, E. N. Brothers, K. N. Kudin, 
 V. N. Staroverov, T. A. Keith, R. Kobayashi, J. Normand, 
 K. Raghavachari, A. P. Rendell, J. C. Burant, S. S. Iyengar, 
 J. Tomasi, M. Cossi, J. M. Millam, M. Klene, C. Adamo, R. Cammi, 
 J. W. Ochterski, R. L. Martin, K. Morokuma, O. Farkas, 
 J. B. Foresman, and D. J. Fox, Gaussian, Inc., Wallingford CT, 2016.
 
 ******************************************
 Gaussian 16:  ES64L-G16RevA.03 25-Dec-2016
                26-Dec-2024 
 ******************************************
 %nprocshared=4
 Will use up to    4 processors via shared memory.
 %mem=4GB
 ----------------
 # b3lyp/6-31g(d)
 ----------------
 1/38=1,172=1/1;
 2/12=2,17=6,18=5,40=1/2;
 3/5=1,6=6,7=1,11=2,25=1,30=1,74=-5/1,2,3;
 4//1;
 5/5=2,38=5/2;
 6/7=2,8=2,9=2,10=2,28=1/1;
 99/5=1,9=1/99;
 -----------------------
 tmpdir/M3_conf_0_19.gjf
 -----------------------
 Symbolic Z-matrix:
 Charge =  0 Multiplicity = 1
 C                     0.        0.        0. 
 H                     1.0974    0.        0. 
 H                    -0.4234    0.       -1.07212 
 H                    -0.33401   0.94307   0.45529 
 H                    -0.37973  -0.86148   0.58042 
 
                          Input orientation:                          
 ---------------------------------------------------------------------
 Center     Atomic      Atomic             Coordinates (Angstroms)
 Number     Number       Type             X           Y           Z
 ---------------------------------------------------------------------
      1          6           0        0.000000    0.000000    0.000000
      2          1           0        1.097400    0.000000    0.000000
      3          1           0       -0.423400    0.000000   -1.072120
      4          1           0       -0.334010    0.943070    0.455290
      5          1           0       -0.379730   -0.861480    0.580420
 ---------------------------------------------------------------------
                    Distance matrix (angstroms):
                    1          2          3          4          5
     1  C    0.000000
     2  H    1.097400   0.000000
     3  H    1.152696   1.860719   0.000000
     4  H    1.099196   1.773585   1.797318   0.000000
     5  H    1.105997   1.805810   1.864120   1.809461   0.000000
 Stoichiometry    CH4
 Framework group  C1[X(CH4)]
 Deg. of freedom     9
 Full point group                 C1      NOp   1
 Largest Abelian subgroup         C1      NOp   1
 Largest concise Abelian subgroup C1      NOp   1
                         Standard orientation:                         
 ---------------------------------------------------------------------
 Center     Atomic      Atomic             Coordinates (Angstroms)
 Number     Number       Type             X           Y           Z
 ---------------------------------------------------------------------
      1          6           0       -0.007747    0.003566   -0.004783
      2          1           0       -0.515201   -0.731362   -0.642481
      3          1           0        1.055144    0.233531   -0.386997
      4          1           0        0.121181   -0.448758    0.988702
      5          1           0       -0.614640    0.925193    0.069477
 ---------------------------------------------------------------------
 Rotational constants (GHZ):         157.0951849         151.1800291         146.6788529
 Standard basis: 6-31G(d) (6D, 7F)
 There are    23 symmetry adapted cartesian basis functions of A   symmetry.
 There are    23 symmetry adapted basis functions of A   symmetry.
    23 basis functions,    44 primitive gaussians,    23 cartesian basis functions
     5 alpha electrons        5 beta electrons
       nuclear repulsion energy        13.1535795735 Hartrees.
 NAtoms=    5 NActive=    5 NUniq=    5 SFac= 1.00D+00 NAtFMM=   60 NAOKFM=F Big=F
 Integral buffers will be    131072 words long.
 Raffenetti 2 integral format.
 Two-electron integral symmetry is turned on.
 One-electron integrals computed using PRISM.
 NBasis=    23 RedAO= T EigKep=  1.91D-02  NBF=    23
 NBsUse=    23 1.00D-06 EigRej= -1.00D+00 NBFU=    23
 ExpMin= 1.61D-01 ExpMax= 3.05D+03 ExpMxC= 4.57D+02 IAcc=3 IRadAn=         5 AccDes= 0.00D+00
 Harris functional with IExCor=  402 and IRadAn=       5 diagonalized for initial guess.
 HarFok:  IExCor=  402 AccDes= 0.00D+00 IRadAn=         5 IDoV= 1 UseB2=F ITyADJ=14
 ICtDFT=  3500011 ScaDFX=  1.000000  1.000000  1.000000  1.000000
 FoFCou: FMM=F IPFlag=           0 FMFlag=      100000 FMFlg1=           0
         NFxFlg=           0 DoJE=T BraDBF=F KetDBF=T FulRan=T
         wScrn=  0.000000 ICntrl=       500 IOpCl=  0 I1Cent=   200000004 NGrid=           0
         NMat0=    1 NMatS0=      1 NMatT0=    0 NMatD0=    1 NMtDS0=    0 NMtDT0=    0
 Petite list used in FoFCou.
 Keep R1 ints in memory in canonical form, NReq=3486400.
 Requested convergence on RMS density matrix=1.00D-08 within 128 cycles.
 Requested convergence on MAX density matrix=1.00D-06.
 Requested convergence on             energy=1.00D-06.
 No special actions if energy rises.
 Integral accuracy reduced to 1.0D-05 until final iterations.
 Initial convergence to 1.0D-05 achieved.  Increase integral accuracy.
 SCF Done:  E(RB3LYP) =  -40.5157623515     A.U. after    9 cycles
            NFock=  9  Conv=0.62D-08     -V/T= 2.0136

 **********************************************************************

            Population analysis using the SCF density.

 **********************************************************************

 Orbital symmetries:
       Occupied  (A) (A) (A) (A) (A)
       Virtual   (A) (A) (A) (A) (A) (A) (A) (A) (A) (A) (A) (A)
                 (A) (A) (A) (A) (A) (A)
 The electronic state is 1-A.
 Alpha  occ. eigenvalues --  -10.17544  -0.68461  -0.39103  -0.38912  -0.37676
 Alpha virt. eigenvalues --    0.11169   0.16197   0.17385   0.17468   0.53169
 Alpha virt. eigenvalues --    0.53692   0.55042   0.85976   0.89050   0.89151
 Alpha virt. eigenvalues --    0.92680   1.09334   1.65914   1.66291   2.17922
 Alpha virt. eigenvalues --    2.22626   2.24252   4.16432
          Condensed to atoms (all electrons):
               1          2          3          4          5
     1  C    5.099288   0.381933   0.375963   0.379668   0.381908
     2  H    0.381933   0.538292  -0.023016  -0.029306  -0.027159
     3  H    0.375963  -0.023016   0.555665  -0.029459  -0.023552
     4  H    0.379668  -0.029306  -0.029459   0.547690  -0.025849
     5  H    0.381908  -0.027159  -0.023552  -0.025849   0.536802
 Mulliken charges:
               1
     1  C   -0.618760
     2  H    0.159255
     3  H    0.144399
     4  H    0.157256
     5  H    0.157850
 Sum of Mulliken charges =   0.00000
 Mulliken charges with hydrogens summed into heavy atoms:
               1
     1  C    0.000000
 Electronic spatial extent (au):  <R**2>=             36.2511
 Charge=              0.0000 electrons
 Dipole moment (field-independent basis, Debye):
    X=             -0.0244    Y=             -0.0320    Z=              0.0379  Tot=              0.0553
 Quadrupole moment (field-independent basis, Debye-Ang):
   XX=             -8.2061   YY=             -8.2717   ZZ=             -8.4404
   XY=             -0.0223   XZ=              0.0478   YZ=              0.0194
 Traceless Quadrupole moment (field-independent basis, Debye-Ang):
   XX=              0.1000   YY=              0.0344   ZZ=             -0.1343
   XY=             -0.0223   XZ=              0.0478   YZ=              0.0194
 Octapole moment (field-independent basis, Debye-Ang**2):
  XXX=              0.4077  YYY=              0.1289  ZZZ=              0.5002  XYY=             -0.5650
  XXY=              0.2489  XXZ=             -0.3331  XZZ=             -0.0148  YZZ=             -0.4887
  YYZ=             -0.0400  XYZ=             -0.2935
 Hexadecapole moment (field-independent basis, Debye-Ang**3):
 XXXX=            -16.0595 YYYY=            -15.6446 ZZZZ=            -15.3550 XXXY=              0.1204
 XXXZ=             -0.2966 YYYX=             -0.3427 YYYZ=              0.2626 ZZZX=              0.3056
 ZZZY=             -0.2274 XXYY=             -5.1694 XXZZ=             -5.3889 YYZZ=             -5.1020
 XXYZ=              0.0591 YYXZ=              0.1845 ZZXY=              0.1243
 N-N= 1.315357957354D+01 E-N=-1.192735117993D+02  KE= 3.997239044177D+01
 1\1\GINC-NODE87\SP\RB3LYP\6-31G(d)\C1H4\YANZ\26-Dec-2024\0\\# b3lyp/6-
 31g(d)\\tmpdir/M3_conf_0_19.gjf\\0,1\C,0,0.,0.,0.\H,0,1.0974,0.,0.\H,0
 ,-0.4234,0.,-1.07212\H,0,-0.33401,0.94307,0.45529\H,0,-0.37973,-0.8614
 8,0.58042\\Version=ES64L-G16RevA.03\State=1-A\HF=-40.5157624\RMSD=6.17
 1e-09\Dipole=0.0041959,0.0142727,0.0158656\Quadrupole=0.0136807,0.0034
 266,-0.0171072,0.0152867,0.0533306,-0.0806008\PG=C01 [X(C1H4)]\\@


 A FOOL CAN ASK MORE QUESTIONS THAN
 A WISE MAN CAN ANSWER.
 Job cpu time:       0 days  0 hours  0 minutes  4.6 seconds.
 Elapsed time:       0 days  0 hours  0 minutes  1.3 seconds.
 File lengths (MBytes):  RWF=      6 Int=      0 D2E=      0 Chk=      1 Scr=      1
 Normal termination of Gaussian 16 at Thu Dec 26 10:46:20 2024.
