 Entering Gaussian System, Link 0=g16
 Initial command:
 /share/apps/gaussian/g16/l1.exe "/tmp/103466.mgr/Gau-120246.inp" -scrdir="/tmp/103466.mgr/"
 Entering Link 1 = /share/apps/gaussian/g16/l1.exe PID=    120251.
  
 Copyright (c) 1988,1990,1992,1993,1995,1998,2003,2009,2016,
            Gaussian, Inc.  All Rights Reserved.
  
 This is part of the Gaussian(R) 16 program.  It is based on
 the Gaussian(R) 09 system (copyright 2009, Gaussian, Inc.),
 the Gaussian(R) 03 system (copyright 2003, Gaussian, Inc.),
 the Gaussian(R) 98 system (copyright 1998, Gaussian, Inc.),
 the Gaussian(R) 94 system (copyright 1995, Gaussian, Inc.),
 the Gaussian 92(TM) system (copyright 1992, Gaussian, Inc.),
 the Gaussian 90(TM) system (copyright 1990, Gaussian, Inc.),
 the Gaussian 88(TM) system (copyright 1988, Gaussian, Inc.),
 the Gaussian 86(TM) system (copyright 1986, Carnegie Mellon
 University), and the Gaussian 82(TM) system (copyright 1983,
 Carnegie Mellon University). Gaussian is a federally registered
 trademark of Gaussian, Inc.
  
 This software contains proprietary and confidential information,
 including trade secrets, belonging to Gaussian, Inc.
  
 This software is provided under written license and may be
 used, copied, transmitted, or stored only in accord with that
 written license.
  
 The following legend is applicable only to US Government
 contracts under FAR:
  
                    RESTRICTED RIGHTS LEGEND
  
 Use, reproduction and disclosure by the US Government is
 subject to restrictions as set forth in subparagraphs (a)
 and (c) of the Commercial Computer Software - Restricted
 Rights clause in FAR 52.227-19.
  
 Gaussian, Inc.
 340 Quinnipiac St., Bldg. 40, Wallingford CT 06492
  
  
 ---------------------------------------------------------------
 Warning -- This program may not be used in any manner that
 competes with the business of Gaussian, Inc. or will provide
 assistance to any competitor of Gaussian, Inc.  The licensee
 of this program is prohibited from giving any competitor of
 Gaussian, Inc. access to this program.  By using this program,
 the user acknowledges that Gaussian, Inc. is engaged in the
 business of creating and licensing software in the field of
 computational chemistry and represents and warrants to the
 licensee that it is not a competitor of Gaussian, Inc. and that
 it will not use this program in any manner prohibited above.
 ---------------------------------------------------------------
  

 Cite this work as:
 Gaussian 16, Revision A.03,
 M. J. Frisch, G. W. Trucks, H. B. Schlegel, G. E. Scuseria, 
 M. A. Robb, J. R. Cheeseman, G. Scalmani, V. Barone, 
 G. A. Petersson, H. Nakatsuji, X. Li, M. Caricato, A. V. Marenich, 
 J. Bloino, B. G. Janesko, R. Gomperts, B. Mennucci, H. P. Hratchian, 
 J. V. Ortiz, A. F. Izmaylov, J. L. Sonnenberg, D. Williams-Young, 
 F. Ding, F. Lipparini, F. Egidi, J. Goings, B. Peng, A. Petrone, 
 T. Henderson, D. Ranasinghe, V. G. Zakrzewski, J. Gao, N. Rega, 
 G. Zheng, W. Liang, M. Hada, M. Ehara, K. Toyota, R. Fukuda, 
 J. Hasegawa, M. Ishida, T. Nakajima, Y. Honda, O. Kitao, H. Nakai, 
 T. Vreven, K. Throssell, J. A. Montgomery, Jr., J. E. Peralta, 
 F. Ogliaro, M. J. Bearpark, J. J. Heyd, E. N. Brothers, K. N. Kudin, 
 V. N. Staroverov, T. A. Keith, R. Kobayashi, J. Normand, 
 K. Raghavachari, A. P. Rendell, J. C. Burant, S. S. Iyengar, 
 J. Tomasi, M. Cossi, J. M. Millam, M. Klene, C. Adamo, R. Cammi, 
 J. W. Ochterski, R. L. Martin, K. Morokuma, O. Farkas, 
 J. B. Foresman, and D. J. Fox, Gaussian, Inc., Wallingford CT, 2016.
 
 ******************************************
 Gaussian 16:  ES64L-G16RevA.03 25-Dec-2016
                26-Dec-2024 
 ******************************************
 %nprocshared=4
 Will use up to    4 processors via shared memory.
 %mem=4GB
 ----------------
 # b3lyp/6-31g(d)
 ----------------
 1/38=1,172=1/1;
 2/12=2,17=6,18=5,40=1/2;
 3/5=1,6=6,7=1,11=2,25=1,30=1,74=-5/1,2,3;
 4//1;
 5/5=2,38=5/2;
 6/7=2,8=2,9=2,10=2,28=1/1;
 99/5=1,9=1/99;
 ----------------------
 tmpdir/M3_conf_0_0.gjf
 ----------------------
 Symbolic Z-matrix:
 Charge =  0 Multiplicity = 1
 C                     0.        0.        0. 
 C                     1.4882    0.        0. 
 C                    -1.2075    0.       -0.01539 
 H                    -2.27354  -0.00078  -0.02687 
 H                     1.85135  -0.8861    0.53982 
 H                     1.85073   0.86985   0.56662 
 H                     1.92441   0.01399  -1.02756 
 
                          Input orientation:                          
 ---------------------------------------------------------------------
 Center     Atomic      Atomic             Coordinates (Angstroms)
 Number     Number       Type             X           Y           Z
 ---------------------------------------------------------------------
      1          6           0        0.000000    0.000000    0.000000
      2          6           0        1.488200    0.000000    0.000000
      3          6           0       -1.207500    0.000000   -0.015390
      4          1           0       -2.273540   -0.000780   -0.026870
      5          1           0        1.851350   -0.886100    0.539820
      6          1           0        1.850730    0.869850    0.566620
      7          1           0        1.924410    0.013990   -1.027560
 ---------------------------------------------------------------------
                    Distance matrix (angstroms):
                    1          2          3          4          5
     1  C    0.000000
     2  C    1.488200   0.000000
     3  C    1.207598   2.695744   0.000000
     4  H    2.273699   3.761836   1.066102   0.000000
     5  H    2.122281   1.099298   3.232645   4.256718   0.000000
     6  H    2.122003   1.099602   3.232359   4.256739   1.756155
     7  H    2.181612   1.116402   3.291435   4.315598   1.808917
                    6          7
     6  H    0.000000
     7  H    1.810893   0.000000
 Stoichiometry    C3H4
 Framework group  C1[X(C3H4)]
 Deg. of freedom    15
 Full point group                 C1      NOp   1
 Largest Abelian subgroup         C1      NOp   1
 Largest concise Abelian subgroup C1      NOp   1
                         Standard orientation:                         
 ---------------------------------------------------------------------
 Center     Atomic      Atomic             Coordinates (Angstroms)
 Number     Number       Type             X           Y           Z
 ---------------------------------------------------------------------
      1          6           0        0.228942   -0.003487   -0.000125
      2          6           0       -1.259219    0.007264   -0.000193
      3          6           0        1.436522    0.003178   -0.000093
      4          1           0        2.502617    0.006958    0.000719
      5          1           0       -1.626291   -0.528597    0.886693
      6          1           0       -1.625803   -0.558018   -0.869215
      7          1           0       -1.687993    1.037927   -0.015734
 ---------------------------------------------------------------------
 Rotational constants (GHZ):         156.1690066           8.3754042           8.3576815
 Standard basis: 6-31G(d) (6D, 7F)
 There are    53 symmetry adapted cartesian basis functions of A   symmetry.
 There are    53 symmetry adapted basis functions of A   symmetry.
    53 basis functions,   100 primitive gaussians,    53 cartesian basis functions
    11 alpha electrons       11 beta electrons
       nuclear repulsion energy        58.1157455713 Hartrees.
 NAtoms=    7 NActive=    7 NUniq=    7 SFac= 1.00D+00 NAtFMM=   60 NAOKFM=F Big=F
 Integral buffers will be    131072 words long.
 Raffenetti 2 integral format.
 Two-electron integral symmetry is turned on.
 One-electron integrals computed using PRISM.
 NBasis=    53 RedAO= T EigKep=  5.38D-04  NBF=    53
 NBsUse=    53 1.00D-06 EigRej= -1.00D+00 NBFU=    53
 ExpMin= 1.61D-01 ExpMax= 3.05D+03 ExpMxC= 4.57D+02 IAcc=3 IRadAn=         5 AccDes= 0.00D+00
 Harris functional with IExCor=  402 and IRadAn=       5 diagonalized for initial guess.
 HarFok:  IExCor=  402 AccDes= 0.00D+00 IRadAn=         5 IDoV= 1 UseB2=F ITyADJ=14
 ICtDFT=  3500011 ScaDFX=  1.000000  1.000000  1.000000  1.000000
 FoFCou: FMM=F IPFlag=           0 FMFlag=      100000 FMFlg1=           0
         NFxFlg=           0 DoJE=T BraDBF=F KetDBF=T FulRan=T
         wScrn=  0.000000 ICntrl=       500 IOpCl=  0 I1Cent=   200000004 NGrid=           0
         NMat0=    1 NMatS0=      1 NMatT0=    0 NMatD0=    1 NMtDS0=    0 NMtDT0=    0
 Petite list used in FoFCou.
 Keep R1 ints in memory in canonical form, NReq=4527186.
 Requested convergence on RMS density matrix=1.00D-08 within 128 cycles.
 Requested convergence on MAX density matrix=1.00D-06.
 Requested convergence on             energy=1.00D-06.
 No special actions if energy rises.
 Integral accuracy reduced to 1.0D-05 until final iterations.
 Initial convergence to 1.0D-05 achieved.  Increase integral accuracy.
 SCF Done:  E(RB3LYP) =  -116.652087780     A.U. after   12 cycles
            NFock= 12  Conv=0.33D-08     -V/T= 2.0109

 **********************************************************************

            Population analysis using the SCF density.

 **********************************************************************

 Orbital symmetries:
       Occupied  (A) (A) (A) (A) (A) (A) (A) (A) (A) (A) (A)
       Virtual   (A) (A) (A) (A) (A) (A) (A) (A) (A) (A) (A) (A)
                 (A) (A) (A) (A) (A) (A) (A) (A) (A) (A) (A) (A)
                 (A) (A) (A) (A) (A) (A) (A) (A) (A) (A) (A) (A)
                 (A) (A) (A) (A) (A) (A)
 The electronic state is 1-A.
 Alpha  occ. eigenvalues --  -10.21203 -10.18580 -10.17248  -0.76866  -0.69364
 Alpha  occ. eigenvalues --   -0.52358  -0.44394  -0.42914  -0.42502  -0.26076
 Alpha  occ. eigenvalues --   -0.25958
 Alpha virt. eigenvalues --    0.06075   0.06362   0.10677   0.13180   0.17770
 Alpha virt. eigenvalues --    0.17966   0.22576   0.40326   0.46438   0.52730
 Alpha virt. eigenvalues --    0.53081   0.62072   0.63523   0.72002   0.72960
 Alpha virt. eigenvalues --    0.76925   0.77718   0.85526   0.85596   0.89749
 Alpha virt. eigenvalues --    1.01058   1.18937   1.40877   1.41827   1.47332
 Alpha virt. eigenvalues --    1.55775   1.55805   1.56813   1.85688   1.87584
 Alpha virt. eigenvalues --    1.94323   1.95106   2.08213   2.19063   2.23028
 Alpha virt. eigenvalues --    2.58860   2.68609   2.69421   3.33316   4.07985
 Alpha virt. eigenvalues --    4.24476   4.61996
          Condensed to atoms (all electrons):
               1          2          3          4          5          6
     1  C    4.588419   0.381771   0.815768   0.003375  -0.025982  -0.025948
     2  C    0.381771   5.248334  -0.149856   0.002323   0.359922   0.359806
     3  C    0.815768  -0.149856   5.434217   0.348093   0.001070   0.001123
     4  H    0.003375   0.002323   0.348093   0.462944  -0.000018  -0.000017
     5  H   -0.025982   0.359922   0.001070  -0.000018   0.542301  -0.031995
     6  H   -0.025948   0.359806   0.001123  -0.000017  -0.031995   0.542180
     7  H   -0.021391   0.359554   0.000864  -0.000009  -0.028105  -0.027901
               7
     1  C   -0.021391
     2  C    0.359554
     3  C    0.000864
     4  H   -0.000009
     5  H   -0.028105
     6  H   -0.027901
     7  H    0.536709
 Mulliken charges:
               1
     1  C    0.283988
     2  C   -0.561855
     3  C   -0.451279
     4  H    0.183308
     5  H    0.182807
     6  H    0.182753
     7  H    0.180278
 Sum of Mulliken charges =  -0.00000
 Mulliken charges with hydrogens summed into heavy atoms:
               1
     1  C    0.283988
     2  C   -0.016017
     3  C   -0.267971
 Electronic spatial extent (au):  <R**2>=            180.7522
 Charge=              0.0000 electrons
 Dipole moment (field-independent basis, Debye):
    X=             -0.6916    Y=             -0.0308    Z=              0.0022  Tot=              0.6923
 Quadrupole moment (field-independent basis, Debye-Ang):
   XX=            -13.6989   YY=            -18.9891   ZZ=            -19.1619
   XY=              0.0189   XZ=             -0.0000   YZ=              0.0001
 Traceless Quadrupole moment (field-independent basis, Debye-Ang):
   XX=              3.5844   YY=             -1.7058   ZZ=             -1.8786
   XY=              0.0189   XZ=             -0.0000   YZ=              0.0001
 Octapole moment (field-independent basis, Debye-Ang**2):
  XXX=              9.5986  YYY=              0.5683  ZZZ=              0.0352  XYY=             -2.6060
  XXY=              0.1160  XXZ=              0.0110  XZZ=             -2.2886  YZZ=             -0.6831
  YYZ=             -0.0305  XYZ=              0.0008
 Hexadecapole moment (field-independent basis, Debye-Ang**3):
 XXXX=           -159.7771 YYYY=            -26.2408 ZZZZ=            -25.9798 XXXY=             -0.0944
 XXXZ=              0.0066 YYYX=             -1.0690 YYYZ=              0.0036 ZZZX=             -0.0563
 ZZZY=             -0.0022 XXYY=            -36.4301 XXZZ=            -37.0655 YYZZ=             -8.6597
 XXYZ=             -0.0046 YYXZ=              0.0543 ZZXY=              1.1569
 N-N= 5.811574557132D+01 E-N=-3.858883043679D+02  KE= 1.153887377142D+02
 1\1\GINC-NODE87\SP\RB3LYP\6-31G(d)\C3H4\YANZ\26-Dec-2024\0\\# b3lyp/6-
 31g(d)\\tmpdir/M3_conf_0_0.gjf\\0,1\C,0,0.,0.,0.\C,0,1.4882,0.,0.\C,0,
 -1.2075,0.,-0.01539\H,0,-2.27354,-0.00078,-0.02687\H,0,1.85135,-0.8861
 ,0.53982\H,0,1.85073,0.86985,0.56662\H,0,1.92441,0.01399,-1.02756\\Ver
 sion=ES64L-G16RevA.03\State=1-A\HF=-116.6520878\RMSD=3.324e-09\Dipole=
 0.2719929,-0.0008389,0.014102\Quadrupole=2.6645211,-1.3966761,-1.26784
 5,-0.0001454,0.0424901,0.0002683\PG=C01 [X(C3H4)]\\@


 ALL MEN WHO EXPLORE
 DEPLORE
 THAT FRUSTRATING HURDLE
 THE GIRDLE.

         -- COLIN FLETCHER
 Job cpu time:       0 days  0 hours  0 minutes 11.1 seconds.
 Elapsed time:       0 days  0 hours  0 minutes  2.9 seconds.
 File lengths (MBytes):  RWF=      6 Int=      0 D2E=      0 Chk=      1 Scr=      1
 Normal termination of Gaussian 16 at Thu Dec 26 10:46:15 2024.
