 Entering Gaussian System, Link 0=g16
 Initial command:
 /share/apps/gaussian/g16/l1.exe "/tmp/103466.mgr/Gau-120249.inp" -scrdir="/tmp/103466.mgr/"
 Entering Link 1 = /share/apps/gaussian/g16/l1.exe PID=    120255.
  
 Copyright (c) 1988,1990,1992,1993,1995,1998,2003,2009,2016,
            Gaussian, Inc.  All Rights Reserved.
  
 This is part of the Gaussian(R) 16 program.  It is based on
 the Gaussian(R) 09 system (copyright 2009, Gaussian, Inc.),
 the Gaussian(R) 03 system (copyright 2003, Gaussian, Inc.),
 the Gaussian(R) 98 system (copyright 1998, Gaussian, Inc.),
 the Gaussian(R) 94 system (copyright 1995, Gaussian, Inc.),
 the Gaussian 92(TM) system (copyright 1992, Gaussian, Inc.),
 the Gaussian 90(TM) system (copyright 1990, Gaussian, Inc.),
 the Gaussian 88(TM) system (copyright 1988, Gaussian, Inc.),
 the Gaussian 86(TM) system (copyright 1986, Carnegie Mellon
 University), and the Gaussian 82(TM) system (copyright 1983,
 Carnegie Mellon University). Gaussian is a federally registered
 trademark of Gaussian, Inc.
  
 This software contains proprietary and confidential information,
 including trade secrets, belonging to Gaussian, Inc.
  
 This software is provided under written license and may be
 used, copied, transmitted, or stored only in accord with that
 written license.
  
 The following legend is applicable only to US Government
 contracts under FAR:
  
                    RESTRICTED RIGHTS LEGEND
  
 Use, reproduction and disclosure by the US Government is
 subject to restrictions as set forth in subparagraphs (a)
 and (c) of the Commercial Computer Software - Restricted
 Rights clause in FAR 52.227-19.
  
 Gaussian, Inc.
 340 Quinnipiac St., Bldg. 40, Wallingford CT 06492
  
  
 ---------------------------------------------------------------
 Warning -- This program may not be used in any manner that
 competes with the business of Gaussian, Inc. or will provide
 assistance to any competitor of Gaussian, Inc.  The licensee
 of this program is prohibited from giving any competitor of
 Gaussian, Inc. access to this program.  By using this program,
 the user acknowledges that Gaussian, Inc. is engaged in the
 business of creating and licensing software in the field of
 computational chemistry and represents and warrants to the
 licensee that it is not a competitor of Gaussian, Inc. and that
 it will not use this program in any manner prohibited above.
 ---------------------------------------------------------------
  

 Cite this work as:
 Gaussian 16, Revision A.03,
 M. J. Frisch, G. W. Trucks, H. B. Schlegel, G. E. Scuseria, 
 M. A. Robb, J. R. Cheeseman, G. Scalmani, V. Barone, 
 G. A. Petersson, H. Nakatsuji, X. Li, M. Caricato, A. V. Marenich, 
 J. Bloino, B. G. Janesko, R. Gomperts, B. Mennucci, H. P. Hratchian, 
 J. V. Ortiz, A. F. Izmaylov, J. L. Sonnenberg, D. Williams-Young, 
 F. Ding, F. Lipparini, F. Egidi, J. Goings, B. Peng, A. Petrone, 
 T. Henderson, D. Ranasinghe, V. G. Zakrzewski, J. Gao, N. Rega, 
 G. Zheng, W. Liang, M. Hada, M. Ehara, K. Toyota, R. Fukuda, 
 J. Hasegawa, M. Ishida, T. Nakajima, Y. Honda, O. Kitao, H. Nakai, 
 T. Vreven, K. Throssell, J. A. Montgomery, Jr., J. E. Peralta, 
 F. Ogliaro, M. J. Bearpark, J. J. Heyd, E. N. Brothers, K. N. Kudin, 
 V. N. Staroverov, T. A. Keith, R. Kobayashi, J. Normand, 
 K. Raghavachari, A. P. Rendell, J. C. Burant, S. S. Iyengar, 
 J. Tomasi, M. Cossi, J. M. Millam, M. Klene, C. Adamo, R. Cammi, 
 J. W. Ochterski, R. L. Martin, K. Morokuma, O. Farkas, 
 J. B. Foresman, and D. J. Fox, Gaussian, Inc., Wallingford CT, 2016.
 
 ******************************************
 Gaussian 16:  ES64L-G16RevA.03 25-Dec-2016
                26-Dec-2024 
 ******************************************
 %nprocshared=4
 Will use up to    4 processors via shared memory.
 %mem=4GB
 ----------------
 # b3lyp/6-31g(d)
 ----------------
 1/38=1,172=1/1;
 2/12=2,17=6,18=5,40=1/2;
 3/5=1,6=6,7=1,11=2,25=1,30=1,74=-5/1,2,3;
 4//1;
 5/5=2,38=5/2;
 6/7=2,8=2,9=2,10=2,28=1/1;
 99/5=1,9=1/99;
 ----------------------
 tmpdir/M3_conf_0_4.gjf
 ----------------------
 Symbolic Z-matrix:
 Charge =  0 Multiplicity = 1
 C                     0.        0.        0. 
 C                     1.4634    0.        0. 
 H                     1.80821   0.        1.04382 
 C                    -1.21859  -0.01317  -0.02262 
 H                    -2.28467  -0.02348  -0.03525 
 H                     1.82593   0.93652  -0.4479 
 H                     1.89961  -0.87026  -0.54655 
 
                          Input orientation:                          
 ---------------------------------------------------------------------
 Center     Atomic      Atomic             Coordinates (Angstroms)
 Number     Number       Type             X           Y           Z
 ---------------------------------------------------------------------
      1          6           0        0.000000    0.000000    0.000000
      2          6           0        1.463400    0.000000    0.000000
      3          1           0        1.808210    0.000000    1.043820
      4          6           0       -1.218590   -0.013170   -0.022620
      5          1           0       -2.284670   -0.023480   -0.035250
      6          1           0        1.825930    0.936520   -0.447900
      7          1           0        1.899610   -0.870260   -0.546550
 ---------------------------------------------------------------------
                    Distance matrix (angstroms):
                    1          2          3          4          5
     1  C    0.000000
     2  C    1.463400   0.000000
     3  H    2.087866   1.099297   0.000000
     4  C    1.218871   2.682118   3.209203   0.000000
     5  H    2.285063   3.748309   4.232802   1.066205   0.000000
     6  H    2.100406   1.099596   1.761423   3.217433   4.241334
     7  H    2.159766   1.116400   1.815209   3.276015   4.299612
                    6          7
     6  H    0.000000
     7  H    1.810971   0.000000
 Stoichiometry    C3H4
 Framework group  C1[X(C3H4)]
 Deg. of freedom    15
 Full point group                 C1      NOp   1
 Largest Abelian subgroup         C1      NOp   1
 Largest concise Abelian subgroup C1      NOp   1
                         Standard orientation:                         
 ---------------------------------------------------------------------
 Center     Atomic      Atomic             Coordinates (Angstroms)
 Number     Number       Type             X           Y           Z
 ---------------------------------------------------------------------
      1          6           0       -0.214381   -0.006634   -0.004449
      2          6           0        1.248935    0.008127    0.001050
      3          1           0        1.602890   -0.575553   -0.860628
      4          6           0       -1.433181    0.004686    0.002265
      5          1           0       -2.499374    0.009561    0.002901
      6          1           0        1.613341   -0.510518    0.899564
      7          1           0        1.674902    1.039436   -0.035031
 ---------------------------------------------------------------------
 Rotational constants (GHZ):         155.4722307           8.4686914           8.4512085
 Standard basis: 6-31G(d) (6D, 7F)
 There are    53 symmetry adapted cartesian basis functions of A   symmetry.
 There are    53 symmetry adapted basis functions of A   symmetry.
    53 basis functions,   100 primitive gaussians,    53 cartesian basis functions
    11 alpha electrons       11 beta electrons
       nuclear repulsion energy        58.2892416767 Hartrees.
 NAtoms=    7 NActive=    7 NUniq=    7 SFac= 1.00D+00 NAtFMM=   60 NAOKFM=F Big=F
 Integral buffers will be    131072 words long.
 Raffenetti 2 integral format.
 Two-electron integral symmetry is turned on.
 One-electron integrals computed using PRISM.
 NBasis=    53 RedAO= T EigKep=  5.56D-04  NBF=    53
 NBsUse=    53 1.00D-06 EigRej= -1.00D+00 NBFU=    53
 ExpMin= 1.61D-01 ExpMax= 3.05D+03 ExpMxC= 4.57D+02 IAcc=3 IRadAn=         5 AccDes= 0.00D+00
 Harris functional with IExCor=  402 and IRadAn=       5 diagonalized for initial guess.
 HarFok:  IExCor=  402 AccDes= 0.00D+00 IRadAn=         5 IDoV= 1 UseB2=F ITyADJ=14
 ICtDFT=  3500011 ScaDFX=  1.000000  1.000000  1.000000  1.000000
 FoFCou: FMM=F IPFlag=           0 FMFlag=      100000 FMFlg1=           0
         NFxFlg=           0 DoJE=T BraDBF=F KetDBF=T FulRan=T
         wScrn=  0.000000 ICntrl=       500 IOpCl=  0 I1Cent=   200000004 NGrid=           0
         NMat0=    1 NMatS0=      1 NMatT0=    0 NMatD0=    1 NMtDS0=    0 NMtDT0=    0
 Petite list used in FoFCou.
 Keep R1 ints in memory in canonical form, NReq=4527186.
 Requested convergence on RMS density matrix=1.00D-08 within 128 cycles.
 Requested convergence on MAX density matrix=1.00D-06.
 Requested convergence on             energy=1.00D-06.
 No special actions if energy rises.
 Integral accuracy reduced to 1.0D-05 until final iterations.
 Initial convergence to 1.0D-05 achieved.  Increase integral accuracy.
 SCF Done:  E(RB3LYP) =  -116.652087410     A.U. after   12 cycles
            NFock= 12  Conv=0.35D-08     -V/T= 2.0110

 **********************************************************************

            Population analysis using the SCF density.

 **********************************************************************

 Orbital symmetries:
       Occupied  (A) (A) (A) (A) (A) (A) (A) (A) (A) (A) (A)
       Virtual   (A) (A) (A) (A) (A) (A) (A) (A) (A) (A) (A) (A)
                 (A) (A) (A) (A) (A) (A) (A) (A) (A) (A) (A) (A)
                 (A) (A) (A) (A) (A) (A) (A) (A) (A) (A) (A) (A)
                 (A) (A) (A) (A) (A) (A)
 The electronic state is 1-A.
 Alpha  occ. eigenvalues --  -10.21030 -10.18656 -10.17417  -0.77241  -0.69192
 Alpha  occ. eigenvalues --   -0.52373  -0.44625  -0.43119  -0.42768  -0.25799
 Alpha  occ. eigenvalues --   -0.25669
 Alpha virt. eigenvalues --    0.05751   0.06093   0.10699   0.13152   0.17742
 Alpha virt. eigenvalues --    0.18000   0.23506   0.39977   0.46448   0.52971
 Alpha virt. eigenvalues --    0.53345   0.62052   0.63568   0.71749   0.72787
 Alpha virt. eigenvalues --    0.76957   0.78681   0.85348   0.85530   0.89812
 Alpha virt. eigenvalues --    1.01103   1.17867   1.39886   1.41087   1.47711
 Alpha virt. eigenvalues --    1.56014   1.56087   1.56496   1.85935   1.88253
 Alpha virt. eigenvalues --    1.93589   1.94865   2.09810   2.19079   2.23376
 Alpha virt. eigenvalues --    2.59160   2.69051   2.70037   3.32443   4.09160
 Alpha virt. eigenvalues --    4.24263   4.62605
          Condensed to atoms (all electrons):
               1          2          3          4          5          6
     1  C    4.594495   0.381979  -0.028106   0.812536   0.002525  -0.026609
     2  C    0.381979   5.266246   0.359072  -0.157759   0.002370   0.358815
     3  H   -0.028106   0.359072   0.543255   0.001057  -0.000023  -0.031234
     4  C    0.812536  -0.157759   0.001057   5.441045   0.349335   0.001082
     5  H    0.002525   0.002370  -0.000023   0.349335   0.461400  -0.000015
     6  H   -0.026609   0.358815  -0.031234   0.001082  -0.000015   0.542482
     7  H   -0.021875   0.358397  -0.027288   0.000835  -0.000006  -0.028022
               7
     1  C   -0.021875
     2  C    0.358397
     3  H   -0.027288
     4  C    0.000835
     5  H   -0.000006
     6  H   -0.028022
     7  H    0.536948
 Mulliken charges:
               1
     1  C    0.285055
     2  C   -0.569119
     3  H    0.183267
     4  C   -0.448130
     5  H    0.184414
     6  H    0.183501
     7  H    0.181011
 Sum of Mulliken charges =   0.00000
 Mulliken charges with hydrogens summed into heavy atoms:
               1
     1  C    0.285055
     2  C   -0.021339
     4  C   -0.263716
 Electronic spatial extent (au):  <R**2>=            179.3463
 Charge=              0.0000 electrons
 Dipole moment (field-independent basis, Debye):
    X=              0.6959    Y=             -0.0290    Z=              0.0025  Tot=              0.6966
 Quadrupole moment (field-independent basis, Debye-Ang):
   XX=            -13.7996   YY=            -18.9896   ZZ=            -19.1549
   XY=             -0.0146   XZ=              0.0072   YZ=             -0.0002
 Traceless Quadrupole moment (field-independent basis, Debye-Ang):
   XX=              3.5151   YY=             -1.6749   ZZ=             -1.8402
   XY=             -0.0146   XZ=              0.0072   YZ=             -0.0002
 Octapole moment (field-independent basis, Debye-Ang**2):
  XXX=             -9.7331  YYY=              0.5801  ZZZ=              0.0752  XYY=              2.6529
  XXY=              0.1660  XXZ=              0.0600  XZZ=              2.3498  YZZ=             -0.6907
  YYZ=             -0.0697  XYZ=             -0.0063
 Hexadecapole moment (field-independent basis, Debye-Ang**3):
 XXXX=           -158.4193 YYYY=            -26.2687 ZZZZ=            -26.0124 XXXY=              0.1233
 XXXZ=              0.0538 YYYX=              1.0732 YYYZ=              0.0072 ZZZX=              0.1330
 ZZZY=             -0.0039 XXYY=            -36.1678 XXZZ=            -36.7990 YYZZ=             -8.6707
 XXYZ=             -0.0329 YYXZ=             -0.1165 ZZXY=             -1.1483
 N-N= 5.828924167670D+01 E-N=-3.862241774022D+02  KE= 1.153862321201D+02
 1\1\GINC-NODE87\SP\RB3LYP\6-31G(d)\C3H4\YANZ\26-Dec-2024\0\\# b3lyp/6-
 31g(d)\\tmpdir/M3_conf_0_4.gjf\\0,1\C,0,0.,0.,0.\C,0,1.4634,0.,0.\H,0,
 1.80821,0.,1.04382\C,0,-1.21859,-0.01317,-0.02262\H,0,-2.28467,-0.0234
 8,-0.03525\H,0,1.82593,0.93652,-0.4479\H,0,1.89961,-0.87026,-0.54655\\
 Version=ES64L-G16RevA.03\State=1-A\HF=-116.6520874\RMSD=3.466e-09\Dipo
 le=0.2736797,0.0116795,0.0080083\Quadrupole=2.6127606,-1.2836853,-1.32
 90753,0.0357505,0.0359522,0.0574509\PG=C01 [X(C3H4)]\\@


 ALL MEN WHO EXPLORE
 DEPLORE
 THAT FRUSTRATING HURDLE
 THE GIRDLE.

         -- COLIN FLETCHER
 Job cpu time:       0 days  0 hours  0 minutes 10.4 seconds.
 Elapsed time:       0 days  0 hours  0 minutes  2.8 seconds.
 File lengths (MBytes):  RWF=      6 Int=      0 D2E=      0 Chk=      1 Scr=      1
 Normal termination of Gaussian 16 at Thu Dec 26 10:46:15 2024.
