 Entering Gaussian System, Link 0=g16
 Initial command:
 /share/apps/gaussian/g16/l1.exe "/tmp/103466.mgr/Gau-120245.inp" -scrdir="/tmp/103466.mgr/"
 Entering Link 1 = /share/apps/gaussian/g16/l1.exe PID=    120250.
  
 Copyright (c) 1988,1990,1992,1993,1995,1998,2003,2009,2016,
            Gaussian, Inc.  All Rights Reserved.
  
 This is part of the Gaussian(R) 16 program.  It is based on
 the Gaussian(R) 09 system (copyright 2009, Gaussian, Inc.),
 the Gaussian(R) 03 system (copyright 2003, Gaussian, Inc.),
 the Gaussian(R) 98 system (copyright 1998, Gaussian, Inc.),
 the Gaussian(R) 94 system (copyright 1995, Gaussian, Inc.),
 the Gaussian 92(TM) system (copyright 1992, Gaussian, Inc.),
 the Gaussian 90(TM) system (copyright 1990, Gaussian, Inc.),
 the Gaussian 88(TM) system (copyright 1988, Gaussian, Inc.),
 the Gaussian 86(TM) system (copyright 1986, Carnegie Mellon
 University), and the Gaussian 82(TM) system (copyright 1983,
 Carnegie Mellon University). Gaussian is a federally registered
 trademark of Gaussian, Inc.
  
 This software contains proprietary and confidential information,
 including trade secrets, belonging to Gaussian, Inc.
  
 This software is provided under written license and may be
 used, copied, transmitted, or stored only in accord with that
 written license.
  
 The following legend is applicable only to US Government
 contracts under FAR:
  
                    RESTRICTED RIGHTS LEGEND
  
 Use, reproduction and disclosure by the US Government is
 subject to restrictions as set forth in subparagraphs (a)
 and (c) of the Commercial Computer Software - Restricted
 Rights clause in FAR 52.227-19.
  
 Gaussian, Inc.
 340 Quinnipiac St., Bldg. 40, Wallingford CT 06492
  
  
 ---------------------------------------------------------------
 Warning -- This program may not be used in any manner that
 competes with the business of Gaussian, Inc. or will provide
 assistance to any competitor of Gaussian, Inc.  The licensee
 of this program is prohibited from giving any competitor of
 Gaussian, Inc. access to this program.  By using this program,
 the user acknowledges that Gaussian, Inc. is engaged in the
 business of creating and licensing software in the field of
 computational chemistry and represents and warrants to the
 licensee that it is not a competitor of Gaussian, Inc. and that
 it will not use this program in any manner prohibited above.
 ---------------------------------------------------------------
  

 Cite this work as:
 Gaussian 16, Revision A.03,
 M. J. Frisch, G. W. Trucks, H. B. Schlegel, G. E. Scuseria, 
 M. A. Robb, J. R. Cheeseman, G. Scalmani, V. Barone, 
 G. A. Petersson, H. Nakatsuji, X. Li, M. Caricato, A. V. Marenich, 
 J. Bloino, B. G. Janesko, R. Gomperts, B. Mennucci, H. P. Hratchian, 
 J. V. Ortiz, A. F. Izmaylov, J. L. Sonnenberg, D. Williams-Young, 
 F. Ding, F. Lipparini, F. Egidi, J. Goings, B. Peng, A. Petrone, 
 T. Henderson, D. Ranasinghe, V. G. Zakrzewski, J. Gao, N. Rega, 
 G. Zheng, W. Liang, M. Hada, M. Ehara, K. Toyota, R. Fukuda, 
 J. Hasegawa, M. Ishida, T. Nakajima, Y. Honda, O. Kitao, H. Nakai, 
 T. Vreven, K. Throssell, J. A. Montgomery, Jr., J. E. Peralta, 
 F. Ogliaro, M. J. Bearpark, J. J. Heyd, E. N. Brothers, K. N. Kudin, 
 V. N. Staroverov, T. A. Keith, R. Kobayashi, J. Normand, 
 K. Raghavachari, A. P. Rendell, J. C. Burant, S. S. Iyengar, 
 J. Tomasi, M. Cossi, J. M. Millam, M. Klene, C. Adamo, R. Cammi, 
 J. W. Ochterski, R. L. Martin, K. Morokuma, O. Farkas, 
 J. B. Foresman, and D. J. Fox, Gaussian, Inc., Wallingford CT, 2016.
 
 ******************************************
 Gaussian 16:  ES64L-G16RevA.03 25-Dec-2016
                26-Dec-2024 
 ******************************************
 %nprocshared=4
 Will use up to    4 processors via shared memory.
 %mem=4GB
 ----------------
 # b3lyp/6-31g(d)
 ----------------
 1/38=1,172=1/1;
 2/12=2,17=6,18=5,40=1/2;
 3/5=1,6=6,7=1,11=2,25=1,30=1,74=-5/1,2,3;
 4//1;
 5/5=2,38=5/2;
 6/7=2,8=2,9=2,10=2,28=1/1;
 99/5=1,9=1/99;
 ----------------------
 tmpdir/M3_conf_0_6.gjf
 ----------------------
 Symbolic Z-matrix:
 Charge =  0 Multiplicity = 1
 C                     0.        0.        0. 
 C                     1.4634    0.        0. 
 C                     2.02034   0.        1.43812 
 C                    -1.22945   0.00024  -0.01994 
 H                    -2.29544   0.00114  -0.02639 
 H                     1.82655   0.87867  -0.55183 
 H                     1.82593  -0.87748  -0.55472 
 H                     3.12618   0.00644   1.45589 
 H                     1.654    -0.88079   1.97797 
 H                     1.65021   0.88327   1.96945 
 
                          Input orientation:                          
 ---------------------------------------------------------------------
 Center     Atomic      Atomic             Coordinates (Angstroms)
 Number     Number       Type             X           Y           Z
 ---------------------------------------------------------------------
      1          6           0        0.000000    0.000000    0.000000
      2          6           0        1.463400    0.000000    0.000000
      3          6           0        2.020340    0.000000    1.438120
      4          6           0       -1.229450    0.000240   -0.019940
      5          1           0       -2.295440    0.001140   -0.026390
      6          1           0        1.826550    0.878670   -0.551830
      7          1           0        1.825930   -0.877480   -0.554720
      8          1           0        3.126180    0.006440    1.455890
      9          1           0        1.654000   -0.880790    1.977970
     10          1           0        1.650210    0.883270    1.969450
 ---------------------------------------------------------------------
                    Distance matrix (angstroms):
                    1          2          3          4          5
     1  C    0.000000
     2  C    1.463400   0.000000
     3  C    2.479912   1.542197   0.000000
     4  C    1.229612   2.692924   3.561892   0.000000
     5  H    2.295592   3.758933   4.557494   1.066010   0.000000
     6  H    2.100681   1.099298   2.183922   3.223923   4.246993
     7  H    2.100406   1.099597   2.186133   3.223620   4.246975
     8  H    3.448573   2.210089   1.106002   4.598872   5.620600
     9  H    2.724678   2.173588   1.096099   3.616924   4.515898
    10  H    2.717001   2.166517   1.095205   3.609689   4.508845
                    6          7          8          9         10
     6  H    0.000000
     7  H    1.756152   0.000000
     8  H    2.545734   2.552355   0.000000
     9  H    3.086318   2.538521   1.796402   0.000000
    10  H    2.527443   3.082621   1.791944   1.764085   0.000000
 Stoichiometry    C4H6
 Framework group  C1[X(C4H6)]
 Deg. of freedom    24
 Full point group                 C1      NOp   1
 Largest Abelian subgroup         C1      NOp   1
 Largest concise Abelian subgroup C1      NOp   1
                         Standard orientation:                         
 ---------------------------------------------------------------------
 Center     Atomic      Atomic             Coordinates (Angstroms)
 Number     Number       Type             X           Y           Z
 ---------------------------------------------------------------------
      1          6           0       -0.814242    0.152296   -0.000294
      2          6           0        0.557796    0.661267   -0.000568
      3          6           0        1.580144   -0.493364   -0.000659
      4          6           0       -1.973871   -0.256613    0.000176
      5          1           0       -2.975552   -0.621318    0.001276
      6          1           0        0.706498    1.305014    0.878030
      7          1           0        0.704609    1.307379   -0.878120
      8          1           0        2.623127   -0.125412    0.005574
      9          1           0        1.424284   -1.126988   -0.881376
     10          1           0        1.418072   -1.120189    0.882685
 ---------------------------------------------------------------------
 Rotational constants (GHZ):          26.9611272           4.5049348           4.0532914
 Standard basis: 6-31G(d) (6D, 7F)
 There are    72 symmetry adapted cartesian basis functions of A   symmetry.
 There are    72 symmetry adapted basis functions of A   symmetry.
    72 basis functions,   136 primitive gaussians,    72 cartesian basis functions
    15 alpha electrons       15 beta electrons
       nuclear repulsion energy       102.2229100525 Hartrees.
 NAtoms=   10 NActive=   10 NUniq=   10 SFac= 1.00D+00 NAtFMM=   60 NAOKFM=F Big=F
 Integral buffers will be    131072 words long.
 Raffenetti 2 integral format.
 Two-electron integral symmetry is turned on.
 One-electron integrals computed using PRISM.
 NBasis=    72 RedAO= T EigKep=  5.57D-04  NBF=    72
 NBsUse=    72 1.00D-06 EigRej= -1.00D+00 NBFU=    72
 ExpMin= 1.61D-01 ExpMax= 3.05D+03 ExpMxC= 4.57D+02 IAcc=3 IRadAn=         5 AccDes= 0.00D+00
 Harris functional with IExCor=  402 and IRadAn=       5 diagonalized for initial guess.
 HarFok:  IExCor=  402 AccDes= 0.00D+00 IRadAn=         5 IDoV= 1 UseB2=F ITyADJ=14
 ICtDFT=  3500011 ScaDFX=  1.000000  1.000000  1.000000  1.000000
 FoFCou: FMM=F IPFlag=           0 FMFlag=      100000 FMFlg1=           0
         NFxFlg=           0 DoJE=T BraDBF=F KetDBF=T FulRan=T
         wScrn=  0.000000 ICntrl=       500 IOpCl=  0 I1Cent=   200000004 NGrid=           0
         NMat0=    1 NMatS0=      1 NMatT0=    0 NMatD0=    1 NMtDS0=    0 NMtDT0=    0
 Petite list used in FoFCou.
 Keep R1 ints in memory in canonical form, NReq=7040236.
 Requested convergence on RMS density matrix=1.00D-08 within 128 cycles.
 Requested convergence on MAX density matrix=1.00D-06.
 Requested convergence on             energy=1.00D-06.
 No special actions if energy rises.
 Integral accuracy reduced to 1.0D-05 until final iterations.
 Initial convergence to 1.0D-05 achieved.  Increase integral accuracy.
 SCF Done:  E(RB3LYP) =  -155.965538854     A.U. after   13 cycles
            NFock= 13  Conv=0.16D-08     -V/T= 2.0109

 **********************************************************************

            Population analysis using the SCF density.

 **********************************************************************

 Orbital symmetries:
       Occupied  (A) (A) (A) (A) (A) (A) (A) (A) (A) (A) (A) (A)
                 (A) (A) (A)
       Virtual   (A) (A) (A) (A) (A) (A) (A) (A) (A) (A) (A) (A)
                 (A) (A) (A) (A) (A) (A) (A) (A) (A) (A) (A) (A)
                 (A) (A) (A) (A) (A) (A) (A) (A) (A) (A) (A) (A)
                 (A) (A) (A) (A) (A) (A) (A) (A) (A) (A) (A) (A)
                 (A) (A) (A) (A) (A) (A) (A) (A) (A)
 The electronic state is 1-A.
 Alpha  occ. eigenvalues --  -10.21115 -10.18593 -10.18585 -10.17687  -0.79504
 Alpha  occ. eigenvalues --   -0.71345  -0.63829  -0.52397  -0.46482  -0.45695
 Alpha  occ. eigenvalues --   -0.39601  -0.37275  -0.36305  -0.25587  -0.25506
 Alpha virt. eigenvalues --    0.05173   0.05712   0.11042   0.13047   0.14928
 Alpha virt. eigenvalues --    0.15338   0.16990   0.20298   0.22826   0.25844
 Alpha virt. eigenvalues --    0.41773   0.46631   0.53036   0.53124   0.55045
 Alpha virt. eigenvalues --    0.56934   0.61417   0.67303   0.68103   0.76861
 Alpha virt. eigenvalues --    0.79505   0.80134   0.81764   0.86389   0.88440
 Alpha virt. eigenvalues --    0.89669   0.91374   0.96474   1.00697   1.15414
 Alpha virt. eigenvalues --    1.28895   1.38038   1.41451   1.52401   1.56377
 Alpha virt. eigenvalues --    1.58085   1.64064   1.69937   1.79794   1.87980
 Alpha virt. eigenvalues --    1.92773   1.97970   1.98379   2.00433   2.14125
 Alpha virt. eigenvalues --    2.24678   2.30233   2.31707   2.48454   2.62685
 Alpha virt. eigenvalues --    2.69120   2.78059   3.32084   4.11114   4.20330
 Alpha virt. eigenvalues --    4.32289   4.67365
          Condensed to atoms (all electrons):
               1          2          3          4          5          6
     1  C    4.625931   0.380735  -0.042395   0.806385   0.001596  -0.031404
     2  C    0.380735   5.172551   0.350128  -0.150854   0.002236   0.364348
     3  C   -0.042395   0.350128   5.084698  -0.000632  -0.000019  -0.036261
     4  C    0.806385  -0.150854  -0.000632   5.454949   0.350704   0.000124
     5  H    0.001596   0.002236  -0.000019   0.350704   0.459432  -0.000022
     6  H   -0.031404   0.364348  -0.036261   0.000124  -0.000022   0.570722
     7  H   -0.031316   0.364124  -0.036234   0.000182  -0.000022  -0.037837
     8  H    0.004612  -0.027316   0.361284   0.000020   0.000001  -0.001990
     9  H   -0.002747  -0.033121   0.378814   0.000353  -0.000011   0.004874
    10  H   -0.002852  -0.033642   0.378696   0.000361  -0.000011  -0.004617
               7          8          9         10
     1  C   -0.031316   0.004612  -0.002747  -0.002852
     2  C    0.364124  -0.027316  -0.033121  -0.033642
     3  C   -0.036234   0.361284   0.378814   0.378696
     4  C    0.000182   0.000020   0.000353   0.000361
     5  H   -0.000022   0.000001  -0.000011  -0.000011
     6  H   -0.037837  -0.001990   0.004874  -0.004617
     7  H    0.570718  -0.001978  -0.004533   0.004931
     8  H   -0.001978   0.574769  -0.027486  -0.027829
     9  H   -0.004533  -0.027486   0.554209  -0.031018
    10  H    0.004931  -0.027829  -0.031018   0.555300
 Mulliken charges:
               1
     1  C    0.291457
     2  C   -0.389189
     3  C   -0.438079
     4  C   -0.461592
     5  H    0.186115
     6  H    0.172063
     7  H    0.171964
     8  H    0.145913
     9  H    0.160667
    10  H    0.160681
 Sum of Mulliken charges =  -0.00000
 Mulliken charges with hydrogens summed into heavy atoms:
               1
     1  C    0.291457
     2  C   -0.045162
     3  C    0.029182
     4  C   -0.275477
 Electronic spatial extent (au):  <R**2>=            335.9554
 Charge=             -0.0000 electrons
 Dipole moment (field-independent basis, Debye):
    X=              0.6504    Y=              0.1530    Z=              0.0040  Tot=              0.6682
 Quadrupole moment (field-independent basis, Debye-Ang):
   XX=            -21.7697   YY=            -24.9706   ZZ=            -25.5431
   XY=              1.8222   XZ=              0.0034   YZ=              0.0058
 Traceless Quadrupole moment (field-independent basis, Debye-Ang):
   XX=              2.3248   YY=             -0.8762   ZZ=             -1.4486
   XY=              1.8222   XZ=              0.0034   YZ=              0.0058
 Octapole moment (field-independent basis, Debye-Ang**2):
  XXX=            -12.7198  YYY=              1.1003  ZZZ=              0.0067  XYY=              1.4461
  XXY=             -4.8740  XXZ=              0.0348  XZZ=              2.7716  YZZ=              0.5045
  YYZ=             -0.0140  XYZ=              0.0172
 Hexadecapole moment (field-independent basis, Debye-Ang**3):
 XXXX=           -285.2512 YYYY=            -77.9609 ZZZZ=            -39.3537 XXXY=             20.0721
 XXXZ=              0.0257 YYYX=              1.5637 YYYZ=              0.0216 ZZZX=              0.0037
 ZZZY=              0.0067 XXYY=            -70.6640 XXZZ=            -68.1115 YYZZ=            -17.6554
 XXYZ=              0.0164 YYXZ=             -0.0235 ZZXY=              0.0168
 N-N= 1.022229100525D+02 E-N=-5.647838700265D+02  KE= 1.542772131391D+02
 1\1\GINC-NODE87\SP\RB3LYP\6-31G(d)\C4H6\YANZ\26-Dec-2024\0\\# b3lyp/6-
 31g(d)\\tmpdir/M3_conf_0_6.gjf\\0,1\C,0,0.,0.,0.\C,0,1.4634,0.,0.\C,0,
 2.02034,0.,1.43812\C,0,-1.22945,0.00024,-0.01994\H,0,-2.29544,0.00114,
 -0.02639\H,0,1.82655,0.87867,-0.55183\H,0,1.82593,-0.87748,-0.55472\H,
 0,3.12618,0.00644,1.45589\H,0,1.654,-0.88079,1.97797\H,0,1.65021,0.883
 27,1.96945\\Version=ES64L-G16RevA.03\State=1-A\HF=-155.9655389\RMSD=1.
 580e-09\Dipole=0.2608638,0.0016352,0.0325498\Quadrupole=2.3240951,-1.0
 770053,-1.2470899,0.0045211,-0.2509975,-0.0032114\PG=C01 [X(C4H6)]\\@


 Until you make peace with who you are,
 you'll never be content with what you have.
                           -- Doris Mortman
 Job cpu time:       0 days  0 hours  0 minutes 20.8 seconds.
 Elapsed time:       0 days  0 hours  0 minutes  5.4 seconds.
 File lengths (MBytes):  RWF=      6 Int=      0 D2E=      0 Chk=      1 Scr=      1
 Normal termination of Gaussian 16 at Thu Dec 26 10:46:18 2024.
