 Entering Gaussian System, Link 0=g16
 Initial command:
 /share/apps/gaussian/g16/l1.exe "/tmp/103466.mgr/Gau-121446.inp" -scrdir="/tmp/103466.mgr/"
 Entering Link 1 = /share/apps/gaussian/g16/l1.exe PID=    121447.
  
 Copyright (c) 1988,1990,1992,1993,1995,1998,2003,2009,2016,
            Gaussian, Inc.  All Rights Reserved.
  
 This is part of the Gaussian(R) 16 program.  It is based on
 the Gaussian(R) 09 system (copyright 2009, Gaussian, Inc.),
 the Gaussian(R) 03 system (copyright 2003, Gaussian, Inc.),
 the Gaussian(R) 98 system (copyright 1998, Gaussian, Inc.),
 the Gaussian(R) 94 system (copyright 1995, Gaussian, Inc.),
 the Gaussian 92(TM) system (copyright 1992, Gaussian, Inc.),
 the Gaussian 90(TM) system (copyright 1990, Gaussian, Inc.),
 the Gaussian 88(TM) system (copyright 1988, Gaussian, Inc.),
 the Gaussian 86(TM) system (copyright 1986, Carnegie Mellon
 University), and the Gaussian 82(TM) system (copyright 1983,
 Carnegie Mellon University). Gaussian is a federally registered
 trademark of Gaussian, Inc.
  
 This software contains proprietary and confidential information,
 including trade secrets, belonging to Gaussian, Inc.
  
 This software is provided under written license and may be
 used, copied, transmitted, or stored only in accord with that
 written license.
  
 The following legend is applicable only to US Government
 contracts under FAR:
  
                    RESTRICTED RIGHTS LEGEND
  
 Use, reproduction and disclosure by the US Government is
 subject to restrictions as set forth in subparagraphs (a)
 and (c) of the Commercial Computer Software - Restricted
 Rights clause in FAR 52.227-19.
  
 Gaussian, Inc.
 340 Quinnipiac St., Bldg. 40, Wallingford CT 06492
  
  
 ---------------------------------------------------------------
 Warning -- This program may not be used in any manner that
 competes with the business of Gaussian, Inc. or will provide
 assistance to any competitor of Gaussian, Inc.  The licensee
 of this program is prohibited from giving any competitor of
 Gaussian, Inc. access to this program.  By using this program,
 the user acknowledges that Gaussian, Inc. is engaged in the
 business of creating and licensing software in the field of
 computational chemistry and represents and warrants to the
 licensee that it is not a competitor of Gaussian, Inc. and that
 it will not use this program in any manner prohibited above.
 ---------------------------------------------------------------
  

 Cite this work as:
 Gaussian 16, Revision A.03,
 M. J. Frisch, G. W. Trucks, H. B. Schlegel, G. E. Scuseria, 
 M. A. Robb, J. R. Cheeseman, G. Scalmani, V. Barone, 
 G. A. Petersson, H. Nakatsuji, X. Li, M. Caricato, A. V. Marenich, 
 J. Bloino, B. G. Janesko, R. Gomperts, B. Mennucci, H. P. Hratchian, 
 J. V. Ortiz, A. F. Izmaylov, J. L. Sonnenberg, D. Williams-Young, 
 F. Ding, F. Lipparini, F. Egidi, J. Goings, B. Peng, A. Petrone, 
 T. Henderson, D. Ranasinghe, V. G. Zakrzewski, J. Gao, N. Rega, 
 G. Zheng, W. Liang, M. Hada, M. Ehara, K. Toyota, R. Fukuda, 
 J. Hasegawa, M. Ishida, T. Nakajima, Y. Honda, O. Kitao, H. Nakai, 
 T. Vreven, K. Throssell, J. A. Montgomery, Jr., J. E. Peralta, 
 F. Ogliaro, M. J. Bearpark, J. J. Heyd, E. N. Brothers, K. N. Kudin, 
 V. N. Staroverov, T. A. Keith, R. Kobayashi, J. Normand, 
 K. Raghavachari, A. P. Rendell, J. C. Burant, S. S. Iyengar, 
 J. Tomasi, M. Cossi, J. M. Millam, M. Klene, C. Adamo, R. Cammi, 
 J. W. Ochterski, R. L. Martin, K. Morokuma, O. Farkas, 
 J. B. Foresman, and D. J. Fox, Gaussian, Inc., Wallingford CT, 2016.
 
 ******************************************
 Gaussian 16:  ES64L-G16RevA.03 25-Dec-2016
                26-Dec-2024 
 ******************************************
 %nprocshared=4
 Will use up to    4 processors via shared memory.
 %mem=4GB
 ----------------
 # b3lyp/6-31g(d)
 ----------------
 1/38=1,172=1/1;
 2/12=2,17=6,18=5,40=1/2;
 3/5=1,6=6,7=1,11=2,25=1,30=1,74=-5/1,2,3;
 4//1;
 5/5=2,38=5/2;
 6/7=2,8=2,9=2,10=2,28=1/1;
 99/5=1,9=1/99;
 ---------------------------
 tmpdir/M3_frag_conf_0_0.gjf
 ---------------------------
 Symbolic Z-matrix:
 Charge =  0 Multiplicity = 1
 C                    -0.28354   1.14163   0.08775 
 C                    -1.46629   1.46333  -0.19595 
 H                    -2.00035   2.33715  -0.53087 
 H                     0.79288   1.1731    0.11686 
 
                          Input orientation:                          
 ---------------------------------------------------------------------
 Center     Atomic      Atomic             Coordinates (Angstroms)
 Number     Number       Type             X           Y           Z
 ---------------------------------------------------------------------
      1          6           0       -0.283543    1.141635    0.087745
      2          6           0       -1.466294    1.463331   -0.195954
      3          1           0       -2.000348    2.337154   -0.530874
      4          1           0        0.792884    1.173097    0.116858
 ---------------------------------------------------------------------
                    Distance matrix (angstroms):
                    1          2          3          4
     1  C    0.000000
     2  C    1.258123   0.000000
     3  H    2.181599   1.077475   0.000000
     4  H    1.077280   2.299124   3.094629   0.000000
 Stoichiometry    C2H2
 Framework group  C1[X(C2H2)]
 Deg. of freedom     6
 Full point group                 C1      NOp   1
 Largest Abelian subgroup         C1      NOp   1
 Largest concise Abelian subgroup C1      NOp   1
                         Standard orientation:                         
 ---------------------------------------------------------------------
 Center     Atomic      Atomic             Coordinates (Angstroms)
 Number     Number       Type             X           Y           Z
 ---------------------------------------------------------------------
      1          6           0       -0.616921   -0.045882   -0.018944
      2          6           0        0.639151   -0.109435    0.014501
      3          1           0        1.476800    0.567017   -0.026824
      4          1           0       -1.610177    0.364886    0.053485
 ---------------------------------------------------------------------
 Rotational constants (GHZ):         843.2560014          35.3553754          33.9751123
 Standard basis: 6-31G(d) (6D, 7F)
 There are    34 symmetry adapted cartesian basis functions of A   symmetry.
 There are    34 symmetry adapted basis functions of A   symmetry.
    34 basis functions,    64 primitive gaussians,    34 cartesian basis functions
     7 alpha electrons        7 beta electrons
       nuclear repulsion energy        24.0433352224 Hartrees.
 NAtoms=    4 NActive=    4 NUniq=    4 SFac= 1.00D+00 NAtFMM=   60 NAOKFM=F Big=F
 Integral buffers will be    131072 words long.
 Raffenetti 2 integral format.
 Two-electron integral symmetry is turned on.
 One-electron integrals computed using PRISM.
 NBasis=    34 RedAO= T EigKep=  3.92D-03  NBF=    34
 NBsUse=    34 1.00D-06 EigRej= -1.00D+00 NBFU=    34
 ExpMin= 1.61D-01 ExpMax= 3.05D+03 ExpMxC= 4.57D+02 IAcc=3 IRadAn=         5 AccDes= 0.00D+00
 Harris functional with IExCor=  402 and IRadAn=       5 diagonalized for initial guess.
 HarFok:  IExCor=  402 AccDes= 0.00D+00 IRadAn=         5 IDoV= 1 UseB2=F ITyADJ=14
 ICtDFT=  3500011 ScaDFX=  1.000000  1.000000  1.000000  1.000000
 FoFCou: FMM=F IPFlag=           0 FMFlag=      100000 FMFlg1=           0
         NFxFlg=           0 DoJE=T BraDBF=F KetDBF=T FulRan=T
         wScrn=  0.000000 ICntrl=       500 IOpCl=  0 I1Cent=   200000004 NGrid=           0
         NMat0=    1 NMatS0=      1 NMatT0=    0 NMatD0=    1 NMtDS0=    0 NMtDT0=    0
 Petite list used in FoFCou.
 Keep R1 ints in memory in canonical form, NReq=3627980.
 Requested convergence on RMS density matrix=1.00D-08 within 128 cycles.
 Requested convergence on MAX density matrix=1.00D-06.
 Requested convergence on             energy=1.00D-06.
 No special actions if energy rises.
 Integral accuracy reduced to 1.0D-05 until final iterations.
 Initial convergence to 1.0D-05 achieved.  Increase integral accuracy.
 SCF Done:  E(RB3LYP) =  -77.2975978990     A.U. after   13 cycles
            NFock= 13  Conv=0.14D-08     -V/T= 2.0126

 **********************************************************************

            Population analysis using the SCF density.

 **********************************************************************

 Orbital symmetries:
       Occupied  (A) (A) (A) (A) (A) (A) (A)
       Virtual   (A) (A) (A) (A) (A) (A) (A) (A) (A) (A) (A) (A)
                 (A) (A) (A) (A) (A) (A) (A) (A) (A) (A) (A) (A)
                 (A) (A) (A)
 The electronic state is 1-A.
 Alpha  occ. eigenvalues --  -10.20881 -10.19862  -0.73978  -0.56162  -0.47540
 Alpha  occ. eigenvalues --   -0.27707  -0.27626
 Alpha virt. eigenvalues --   -0.03417   0.03613   0.13476   0.16452   0.39719
 Alpha virt. eigenvalues --    0.47743   0.53859   0.54662   0.62566   0.64237
 Alpha virt. eigenvalues --    0.68676   0.82665   0.91430   1.03059   1.12717
 Alpha virt. eigenvalues --    1.49179   1.55490   1.56256   1.74654   1.90321
 Alpha virt. eigenvalues --    1.97296   2.23035   2.45297   2.61611   2.95400
 Alpha virt. eigenvalues --    4.06143   4.20381
          Condensed to atoms (all electrons):
               1          2          3          4
     1  C    4.905213   0.914537  -0.024105   0.360725
     2  C    0.914537   5.021831   0.357658  -0.042072
     3  H   -0.024105   0.357658   0.460696   0.002541
     4  H    0.360725  -0.042072   0.002541   0.473693
 Mulliken charges:
               1
     1  C   -0.156370
     2  C   -0.251953
     3  H    0.203210
     4  H    0.205113
 Sum of Mulliken charges =  -0.00000
 Mulliken charges with hydrogens summed into heavy atoms:
               1
     1  C    0.048743
     2  C   -0.048743
 Electronic spatial extent (au):  <R**2>=             61.0848
 Charge=             -0.0000 electrons
 Dipole moment (field-independent basis, Debye):
    X=             -0.4139    Y=              1.0783    Z=              0.0309  Tot=              1.1554
 Quadrupole moment (field-independent basis, Debye-Ang):
   XX=             -8.1360   YY=            -12.4528   ZZ=            -13.2791
   XY=              0.4275   XZ=             -0.1987   YZ=              0.0034
 Traceless Quadrupole moment (field-independent basis, Debye-Ang):
   XX=              3.1533   YY=             -1.1635   ZZ=             -1.9898
   XY=              0.4275   XZ=             -0.1987   YZ=              0.0034
 Octapole moment (field-independent basis, Debye-Ang**2):
  XXX=             -2.0239  YYY=              1.7172  ZZZ=              0.0502  XYY=              0.0953
  XXY=              3.3326  XXZ=              0.1140  XZZ=             -0.0582  YZZ=              0.4622
  YYZ=              0.0110  XYZ=             -0.0339
 Hexadecapole moment (field-independent basis, Debye-Ang**3):
 XXXX=            -44.5008 YYYY=            -15.4318 ZZZZ=            -13.8892 XXXY=              0.8455
 XXXZ=             -0.6560 YYYX=              0.7294 YYYZ=             -0.0010 ZZZX=             -0.1742
 ZZZY=              0.0028 XXYY=            -10.4385 XXZZ=            -11.8168 YYZZ=             -4.9268
 XXYZ=              0.0356 YYXZ=             -0.1046 ZZXY=              0.1196
 N-N= 2.404333522238D+01 E-N=-2.268750893159D+02  KE= 7.633481676961D+01
 1\1\GINC-NODE87\SP\RB3LYP\6-31G(d)\C2H2\YANZ\26-Dec-2024\0\\# b3lyp/6-
 31g(d)\\tmpdir/M3_frag_conf_0_0.gjf\\0,1\C,0,-0.283543,1.141635,0.0877
 45\C,0,-1.466294,1.463331,-0.195954\H,0,-2.000348,2.337154,-0.530874\H
 ,0,0.79288417,1.17309726,0.11685752\\Version=ES64L-G16RevA.03\State=1-
 A\HF=-77.2975979\RMSD=1.389e-09\Dipole=0.3061928,0.3215896,-0.0973435\
 Quadrupole=1.694695,-0.4238049,-1.27089,-1.1768464,0.6327779,-0.469753
 \PG=C01 [X(C2H2)]\\@


 A SOLDIER'S LIFE IS A LIFE OF HONOR, BUT A DOG WOULD NOT LEAD IT.
 -- PRINCE RUPERT, FOUNDER OF THE HUDSON'S BAY COMPANY
 Job cpu time:       0 days  0 hours  0 minutes  5.6 seconds.
 Elapsed time:       0 days  0 hours  0 minutes  1.5 seconds.
 File lengths (MBytes):  RWF=      6 Int=      0 D2E=      0 Chk=      1 Scr=      1
 Normal termination of Gaussian 16 at Thu Dec 26 10:46:34 2024.
