 Entering Gaussian System, Link 0=g16
 Initial command:
 /share/apps/gaussian/g16/l1.exe "/tmp/103466.mgr/Gau-120125.inp" -scrdir="/tmp/103466.mgr/"
 Entering Link 1 = /share/apps/gaussian/g16/l1.exe PID=    120126.
  
 Copyright (c) 1988,1990,1992,1993,1995,1998,2003,2009,2016,
            Gaussian, Inc.  All Rights Reserved.
  
 This is part of the Gaussian(R) 16 program.  It is based on
 the Gaussian(R) 09 system (copyright 2009, Gaussian, Inc.),
 the Gaussian(R) 03 system (copyright 2003, Gaussian, Inc.),
 the Gaussian(R) 98 system (copyright 1998, Gaussian, Inc.),
 the Gaussian(R) 94 system (copyright 1995, Gaussian, Inc.),
 the Gaussian 92(TM) system (copyright 1992, Gaussian, Inc.),
 the Gaussian 90(TM) system (copyright 1990, Gaussian, Inc.),
 the Gaussian 88(TM) system (copyright 1988, Gaussian, Inc.),
 the Gaussian 86(TM) system (copyright 1986, Carnegie Mellon
 University), and the Gaussian 82(TM) system (copyright 1983,
 Carnegie Mellon University). Gaussian is a federally registered
 trademark of Gaussian, Inc.
  
 This software contains proprietary and confidential information,
 including trade secrets, belonging to Gaussian, Inc.
  
 This software is provided under written license and may be
 used, copied, transmitted, or stored only in accord with that
 written license.
  
 The following legend is applicable only to US Government
 contracts under FAR:
  
                    RESTRICTED RIGHTS LEGEND
  
 Use, reproduction and disclosure by the US Government is
 subject to restrictions as set forth in subparagraphs (a)
 and (c) of the Commercial Computer Software - Restricted
 Rights clause in FAR 52.227-19.
  
 Gaussian, Inc.
 340 Quinnipiac St., Bldg. 40, Wallingford CT 06492
  
  
 ---------------------------------------------------------------
 Warning -- This program may not be used in any manner that
 competes with the business of Gaussian, Inc. or will provide
 assistance to any competitor of Gaussian, Inc.  The licensee
 of this program is prohibited from giving any competitor of
 Gaussian, Inc. access to this program.  By using this program,
 the user acknowledges that Gaussian, Inc. is engaged in the
 business of creating and licensing software in the field of
 computational chemistry and represents and warrants to the
 licensee that it is not a competitor of Gaussian, Inc. and that
 it will not use this program in any manner prohibited above.
 ---------------------------------------------------------------
  

 Cite this work as:
 Gaussian 16, Revision A.03,
 M. J. Frisch, G. W. Trucks, H. B. Schlegel, G. E. Scuseria, 
 M. A. Robb, J. R. Cheeseman, G. Scalmani, V. Barone, 
 G. A. Petersson, H. Nakatsuji, X. Li, M. Caricato, A. V. Marenich, 
 J. Bloino, B. G. Janesko, R. Gomperts, B. Mennucci, H. P. Hratchian, 
 J. V. Ortiz, A. F. Izmaylov, J. L. Sonnenberg, D. Williams-Young, 
 F. Ding, F. Lipparini, F. Egidi, J. Goings, B. Peng, A. Petrone, 
 T. Henderson, D. Ranasinghe, V. G. Zakrzewski, J. Gao, N. Rega, 
 G. Zheng, W. Liang, M. Hada, M. Ehara, K. Toyota, R. Fukuda, 
 J. Hasegawa, M. Ishida, T. Nakajima, Y. Honda, O. Kitao, H. Nakai, 
 T. Vreven, K. Throssell, J. A. Montgomery, Jr., J. E. Peralta, 
 F. Ogliaro, M. J. Bearpark, J. J. Heyd, E. N. Brothers, K. N. Kudin, 
 V. N. Staroverov, T. A. Keith, R. Kobayashi, J. Normand, 
 K. Raghavachari, A. P. Rendell, J. C. Burant, S. S. Iyengar, 
 J. Tomasi, M. Cossi, J. M. Millam, M. Klene, C. Adamo, R. Cammi, 
 J. W. Ochterski, R. L. Martin, K. Morokuma, O. Farkas, 
 J. B. Foresman, and D. J. Fox, Gaussian, Inc., Wallingford CT, 2016.
 
 ******************************************
 Gaussian 16:  ES64L-G16RevA.03 25-Dec-2016
                26-Dec-2024 
 ******************************************
 %nprocshared=4
 Will use up to    4 processors via shared memory.
 %mem=4GB
 ----------------
 # b3lyp/6-31g(d)
 ----------------
 1/38=1,172=1/1;
 2/12=2,17=6,18=5,40=1/2;
 3/5=1,6=6,7=1,11=2,25=1,30=1,74=-5/1,2,3;
 4//1;
 5/5=2,38=5/2;
 6/7=2,8=2,9=2,10=2,28=1/1;
 99/5=1,9=1/99;
 --------------------
 tmpdir/M3_ref_35.gjf
 --------------------
 Symbolic Z-matrix:
 Charge =  0 Multiplicity = 1
 C                    -2.58198  -0.0458    0.06552 
 C                    -1.35441   0.7147    0.303 
 C                    -0.09371   0.00656  -0.23322 
 C                     1.1758    0.81373   0.03333 
 C                    -3.58664  -0.68445  -0.13711 
 H                    -4.47463  -1.24717  -0.31445 
 H                    -1.24209   0.89544   1.38155 
 H                    -1.44664   1.70669  -0.16249 
 H                    -0.19481  -0.16538  -1.31101 
 H                     0.00093  -0.97452   0.24421 
 H                     2.10762   0.27343  -0.3771 
 H                     1.1315    1.77818  -0.49221 
 H                     1.27141   1.02376   1.11168 
 
                          Input orientation:                          
 ---------------------------------------------------------------------
 Center     Atomic      Atomic             Coordinates (Angstroms)
 Number     Number       Type             X           Y           Z
 ---------------------------------------------------------------------
      1          6           0       -2.581978   -0.045798    0.065521
      2          6           0       -1.354410    0.714704    0.303001
      3          6           0       -0.093708    0.006563   -0.233217
      4          6           0        1.175805    0.813726    0.033333
      5          6           0       -3.586639   -0.684453   -0.137110
      6          1           0       -4.474630   -1.247165   -0.314453
      7          1           0       -1.242090    0.895439    1.381546
      8          1           0       -1.446643    1.706693   -0.162488
      9          1           0       -0.194808   -0.165380   -1.311007
     10          1           0        0.000930   -0.974522    0.244205
     11          1           0        2.107618    0.273428   -0.377105
     12          1           0        1.131503    1.778183   -0.492214
     13          1           0        1.271413    1.023758    1.111676
 ---------------------------------------------------------------------
                    Distance matrix (angstroms):
                    1          2          3          4          5
     1  C    0.000000
     2  C    1.463449   0.000000
     3  C    2.506686   1.542194   0.000000
     4  C    3.854964   2.546471   1.527817   0.000000
     5  C    1.207594   2.670989   3.561925   4.995444   0.000000
     6  H    2.273718   3.737105   4.557511   6.024587   1.066125
     7  H    2.100750   1.099336   2.171714   2.769580   3.209250
     8  H    2.100523   1.099650   2.173908   2.777223   3.209019
     9  H    2.758208   2.173533   1.096092   2.155105   3.626567
    10  H    2.750613   2.166538   1.095178   2.150030   3.619419
    11  H    4.721243   3.555686   2.222106   1.152673   5.779247
    12  H    4.174676   2.818354   2.169530   1.099245   5.333998
    13  H    4.133644   2.764854   2.169557   1.102759   5.298879
                    6          7          8          9         10
     6  H    0.000000
     7  H    4.232786   0.000000
     8  H    4.232857   1.756137   0.000000
     9  H    4.525512   3.077658   2.528012   0.000000
    10  H    4.518525   2.517022   3.074050   1.764004   0.000000
    11  H    6.755895   3.834096   3.838369   2.523072   2.526171
    12  H    6.372837   3.150263   2.600128   2.491377   3.065598
    13  H    6.340974   2.531204   3.078591   3.071359   2.521856
                   11         12         13
    11  H    0.000000
    12  H    1.797314   0.000000
    13  H    1.865128   1.777975   0.000000
 Stoichiometry    C5H8
 Framework group  C1[X(C5H8)]
 Deg. of freedom    33
 Full point group                 C1      NOp   1
 Largest Abelian subgroup         C1      NOp   1
 Largest concise Abelian subgroup C1      NOp   1
                         Standard orientation:                         
 ---------------------------------------------------------------------
 Center     Atomic      Atomic             Coordinates (Angstroms)
 Number     Number       Type             X           Y           Z
 ---------------------------------------------------------------------
      1          6           0        1.505505    0.156549    0.001915
      2          6           0        0.119747    0.627021    0.005544
      3          6           0       -0.907160   -0.523524   -0.002996
      4          6           0       -2.345873   -0.009417   -0.007946
      5          6           0        2.643952   -0.246204   -0.001397
      6          1           0        3.649712   -0.599838   -0.005033
      7          1           0       -0.046763    1.272950   -0.868293
      8          1           0       -0.045174    1.262343    0.887811
      9          1           0       -0.753782   -1.164280    0.872974
     10          1           0       -0.747526   -1.144448   -0.890907
     11          1           0       -3.100333   -0.880877   -0.009790
     12          1           0       -2.549274    0.562541    0.908477
     13          1           0       -2.503887    0.665062   -0.865959
 ---------------------------------------------------------------------
 Rotational constants (GHZ):          23.4288939           2.2120456           2.1003581
 Standard basis: 6-31G(d) (6D, 7F)
 There are    91 symmetry adapted cartesian basis functions of A   symmetry.
 There are    91 symmetry adapted basis functions of A   symmetry.
    91 basis functions,   172 primitive gaussians,    91 cartesian basis functions
    19 alpha electrons       19 beta electrons
       nuclear repulsion energy       153.2743860455 Hartrees.
 NAtoms=   13 NActive=   13 NUniq=   13 SFac= 1.00D+00 NAtFMM=   60 NAOKFM=F Big=F
 Integral buffers will be    131072 words long.
 Raffenetti 2 integral format.
 Two-electron integral symmetry is turned on.
 One-electron integrals computed using PRISM.
 NBasis=    91 RedAO= T EigKep=  4.29D-04  NBF=    91
 NBsUse=    91 1.00D-06 EigRej= -1.00D+00 NBFU=    91
 ExpMin= 1.61D-01 ExpMax= 3.05D+03 ExpMxC= 4.57D+02 IAcc=3 IRadAn=         5 AccDes= 0.00D+00
 Harris functional with IExCor=  402 and IRadAn=       5 diagonalized for initial guess.
 HarFok:  IExCor=  402 AccDes= 0.00D+00 IRadAn=         5 IDoV= 1 UseB2=F ITyADJ=14
 ICtDFT=  3500011 ScaDFX=  1.000000  1.000000  1.000000  1.000000
 FoFCou: FMM=F IPFlag=           0 FMFlag=      100000 FMFlg1=           0
         NFxFlg=           0 DoJE=T BraDBF=F KetDBF=T FulRan=T
         wScrn=  0.000000 ICntrl=       500 IOpCl=  0 I1Cent=   200000004 NGrid=           0
         NMat0=    1 NMatS0=      1 NMatT0=    0 NMatD0=    1 NMtDS0=    0 NMtDT0=    0
 Petite list used in FoFCou.
 Keep R1 ints in memory in canonical form, NReq=12416697.
 Requested convergence on RMS density matrix=1.00D-08 within 128 cycles.
 Requested convergence on MAX density matrix=1.00D-06.
 Requested convergence on             energy=1.00D-06.
 No special actions if energy rises.
 Integral accuracy reduced to 1.0D-05 until final iterations.
 Initial convergence to 1.0D-05 achieved.  Increase integral accuracy.
 SCF Done:  E(RB3LYP) =  -195.278566723     A.U. after   13 cycles
            NFock= 13  Conv=0.33D-08     -V/T= 2.0106

 **********************************************************************

            Population analysis using the SCF density.

 **********************************************************************

 Orbital symmetries:
       Occupied  (A) (A) (A) (A) (A) (A) (A) (A) (A) (A) (A) (A)
                 (A) (A) (A) (A) (A) (A) (A)
       Virtual   (A) (A) (A) (A) (A) (A) (A) (A) (A) (A) (A) (A)
                 (A) (A) (A) (A) (A) (A) (A) (A) (A) (A) (A) (A)
                 (A) (A) (A) (A) (A) (A) (A) (A) (A) (A) (A) (A)
                 (A) (A) (A) (A) (A) (A) (A) (A) (A) (A) (A) (A)
                 (A) (A) (A) (A) (A) (A) (A) (A) (A) (A) (A) (A)
                 (A) (A) (A) (A) (A) (A) (A) (A) (A) (A) (A) (A)
 The electronic state is 1-A.
 Alpha  occ. eigenvalues --  -10.20754 -10.18912 -10.18511 -10.18026 -10.17115
 Alpha  occ. eigenvalues --   -0.80542  -0.73893  -0.68304  -0.59704  -0.52311
 Alpha  occ. eigenvalues --   -0.47241  -0.46103  -0.41764  -0.40105  -0.36145
 Alpha  occ. eigenvalues --   -0.34891  -0.33908  -0.25762  -0.25760
 Alpha virt. eigenvalues --    0.05886   0.06413   0.09302   0.13185   0.13623
 Alpha virt. eigenvalues --    0.13841   0.15355   0.16443   0.18608   0.20952
 Alpha virt. eigenvalues --    0.24486   0.25713   0.26121   0.43547   0.46871
 Alpha virt. eigenvalues --    0.51135   0.53508   0.54665   0.55278   0.59043
 Alpha virt. eigenvalues --    0.62768   0.67231   0.68219   0.69982   0.72039
 Alpha virt. eigenvalues --    0.77080   0.81878   0.82923   0.84218   0.86835
 Alpha virt. eigenvalues --    0.87896   0.89872   0.90373   0.95267   0.96238
 Alpha virt. eigenvalues --    1.00173   1.00688   1.18435   1.28401   1.37799
 Alpha virt. eigenvalues --    1.41759   1.44609   1.54085   1.55635   1.55858
 Alpha virt. eigenvalues --    1.59598   1.75608   1.76351   1.86194   1.90824
 Alpha virt. eigenvalues --    1.91597   1.93870   1.96279   2.00711   2.03427
 Alpha virt. eigenvalues --    2.05183   2.20412   2.22870   2.31233   2.32164
 Alpha virt. eigenvalues --    2.37194   2.51766   2.59207   2.67020   2.71710
 Alpha virt. eigenvalues --    2.84159   3.37161   4.11148   4.19292   4.27675
 Alpha virt. eigenvalues --    4.41987   4.70102
          Condensed to atoms (all electrons):
               1          2          3          4          5          6
     1  C    4.585290   0.369340  -0.034529   0.003084   0.767323   0.009859
     2  C    0.369340   5.268152   0.358474  -0.045156  -0.187115   0.002569
     3  C   -0.034529   0.358474   4.988950   0.349890   0.000060  -0.000001
     4  C    0.003084  -0.045156   0.349890   5.090312  -0.000100   0.000001
     5  C    0.767323  -0.187115   0.000060  -0.000100   5.591265   0.345740
     6  H    0.009859   0.002569  -0.000001   0.000001   0.345740   0.457547
     7  H   -0.027185   0.355017  -0.037458  -0.003330   0.001031  -0.000018
     8  H   -0.027403   0.355283  -0.037757  -0.002624   0.001009  -0.000018
     9  H   -0.001047  -0.037343   0.378997  -0.037180   0.000573  -0.000007
    10  H   -0.001177  -0.038405   0.379783  -0.038342   0.000582  -0.000008
    11  H   -0.000101   0.003793  -0.025467   0.367943  -0.000001  -0.000000
    12  H    0.000120  -0.004442  -0.036281   0.374930   0.000006   0.000000
    13  H    0.000166  -0.004561  -0.037391   0.375838   0.000008   0.000000
               7          8          9         10         11         12
     1  C   -0.027185  -0.027403  -0.001047  -0.001177  -0.000101   0.000120
     2  C    0.355017   0.355283  -0.037343  -0.038405   0.003793  -0.004442
     3  C   -0.037458  -0.037757   0.378997   0.379783  -0.025467  -0.036281
     4  C   -0.003330  -0.002624  -0.037180  -0.038342   0.367943   0.374930
     5  C    0.001031   0.001009   0.000573   0.000582  -0.000001   0.000006
     6  H   -0.000018  -0.000018  -0.000007  -0.000008  -0.000000   0.000000
     7  H    0.578773  -0.038398   0.005465  -0.005304  -0.000066  -0.000409
     8  H   -0.038398   0.578551  -0.005268   0.005546  -0.000091   0.004972
     9  H    0.005465  -0.005268   0.584624  -0.035979  -0.002271  -0.005016
    10  H   -0.005304   0.005546  -0.035979   0.585703  -0.003306   0.005351
    11  H   -0.000066  -0.000091  -0.002271  -0.003306   0.578298  -0.031561
    12  H   -0.000409   0.004972  -0.005016   0.005351  -0.031561   0.580810
    13  H    0.005676  -0.000480   0.005234  -0.004302  -0.024190  -0.033288
              13
     1  C    0.000166
     2  C   -0.004561
     3  C   -0.037391
     4  C    0.375838
     5  C    0.000008
     6  H    0.000000
     7  H    0.005676
     8  H   -0.000480
     9  H    0.005234
    10  H   -0.004302
    11  H   -0.024190
    12  H   -0.033288
    13  H    0.573149
 Mulliken charges:
               1
     1  C    0.356259
     2  C   -0.395605
     3  C   -0.247272
     4  C   -0.435266
     5  C   -0.520382
     6  H    0.184337
     7  H    0.166207
     8  H    0.166679
     9  H    0.149218
    10  H    0.149858
    11  H    0.137019
    12  H    0.144807
    13  H    0.144141
 Sum of Mulliken charges =   0.00000
 Mulliken charges with hydrogens summed into heavy atoms:
               1
     1  C    0.356259
     2  C   -0.062720
     3  C    0.051805
     4  C   -0.009299
     5  C   -0.336045
 Electronic spatial extent (au):  <R**2>=            595.5302
 Charge=             -0.0000 electrons
 Dipole moment (field-independent basis, Debye):
    X=             -0.6829    Y=              0.0998    Z=              0.0224  Tot=              0.6905
 Quadrupole moment (field-independent basis, Debye-Ang):
   XX=            -29.5931   YY=            -31.5598   ZZ=            -31.9652
   XY=             -1.3211   XZ=             -0.1239   YZ=             -0.0764
 Traceless Quadrupole moment (field-independent basis, Debye-Ang):
   XX=              1.4463   YY=             -0.5205   ZZ=             -0.9258
   XY=             -1.3211   XZ=             -0.1239   YZ=             -0.0764
 Octapole moment (field-independent basis, Debye-Ang**2):
  XXX=             20.4211  YYY=              0.5812  ZZZ=              0.0900  XYY=             -2.1778
  XXY=             -8.3200  XXZ=              0.3511  XZZ=             -3.4486  YZZ=              0.9279
  YYZ=             -0.0441  XYZ=              0.1981
 Hexadecapole moment (field-independent basis, Debye-Ang**3):
 XXXX=           -586.8445 YYYY=            -91.5169 ZZZZ=            -53.0699 XXXY=            -25.5574
 XXXZ=             -1.7936 YYYX=              0.3729 YYYZ=             -0.1895 ZZZX=             -0.2857
 ZZZY=             -0.0307 XXYY=           -128.0016 XXZZ=           -129.1235 YYZZ=            -22.2006
 XXYZ=             -0.3886 YYXZ=              0.1009 ZZXY=             -0.9233
 N-N= 1.532743860455D+02 E-N=-7.576703414054D+02  KE= 1.932390134326D+02
 1\1\GINC-NODE87\SP\RB3LYP\6-31G(d)\C5H8\YANZ\26-Dec-2024\0\\# b3lyp/6-
 31g(d)\\tmpdir/M3_ref_35.gjf\\0,1\C,0,-2.581978,-0.045798,0.065521\C,0
 ,-1.35441,0.714704,0.303001\C,0,-0.093708,0.006563,-0.233217\C,0,1.175
 805,0.813726,0.033333\C,0,-3.586639,-0.684453,-0.13711\H,0,-4.47463,-1
 .247165,-0.314453\H,0,-1.24209,0.895439,1.381546\H,0,-1.446643,1.70669
 3,-0.162488\H,0,-0.194808,-0.16538,-1.311007\H,0,0.00093,-0.974522,0.2
 44205\H,0,2.1076179,0.27342833,-0.37710465\H,0,1.131503,1.778183,-0.49
 2214\H,0,1.271413,1.023758,1.111676\\Version=ES64L-G16RevA.03\State=1-
 A\HF=-195.2785667\RMSD=3.305e-09\Dipole=0.2491888,0.1073373,0.0139257\
 Quadrupole=0.5053096,0.0570102,-0.5623198,1.1763363,0.3513293,0.267714
 7\PG=C01 [X(C5H8)]\\@


 In the beginning there was nothing, which exploded.
 Job cpu time:       0 days  0 hours  0 minutes 26.7 seconds.
 Elapsed time:       0 days  0 hours  0 minutes  7.0 seconds.
 File lengths (MBytes):  RWF=     10 Int=      0 D2E=      0 Chk=      2 Scr=      1
 Normal termination of Gaussian 16 at Thu Dec 26 10:46:10 2024.
