 Entering Gaussian System, Link 0=g16
 Initial command:
 /share/apps/gaussian/g16/l1.exe "/tmp/103466.mgr/Gau-119001.inp" -scrdir="/tmp/103466.mgr/"
 Entering Link 1 = /share/apps/gaussian/g16/l1.exe PID=    119006.
  
 Copyright (c) 1988,1990,1992,1993,1995,1998,2003,2009,2016,
            Gaussian, Inc.  All Rights Reserved.
  
 This is part of the Gaussian(R) 16 program.  It is based on
 the Gaussian(R) 09 system (copyright 2009, Gaussian, Inc.),
 the Gaussian(R) 03 system (copyright 2003, Gaussian, Inc.),
 the Gaussian(R) 98 system (copyright 1998, Gaussian, Inc.),
 the Gaussian(R) 94 system (copyright 1995, Gaussian, Inc.),
 the Gaussian 92(TM) system (copyright 1992, Gaussian, Inc.),
 the Gaussian 90(TM) system (copyright 1990, Gaussian, Inc.),
 the Gaussian 88(TM) system (copyright 1988, Gaussian, Inc.),
 the Gaussian 86(TM) system (copyright 1986, Carnegie Mellon
 University), and the Gaussian 82(TM) system (copyright 1983,
 Carnegie Mellon University). Gaussian is a federally registered
 trademark of Gaussian, Inc.
  
 This software contains proprietary and confidential information,
 including trade secrets, belonging to Gaussian, Inc.
  
 This software is provided under written license and may be
 used, copied, transmitted, or stored only in accord with that
 written license.
  
 The following legend is applicable only to US Government
 contracts under FAR:
  
                    RESTRICTED RIGHTS LEGEND
  
 Use, reproduction and disclosure by the US Government is
 subject to restrictions as set forth in subparagraphs (a)
 and (c) of the Commercial Computer Software - Restricted
 Rights clause in FAR 52.227-19.
  
 Gaussian, Inc.
 340 Quinnipiac St., Bldg. 40, Wallingford CT 06492
  
  
 ---------------------------------------------------------------
 Warning -- This program may not be used in any manner that
 competes with the business of Gaussian, Inc. or will provide
 assistance to any competitor of Gaussian, Inc.  The licensee
 of this program is prohibited from giving any competitor of
 Gaussian, Inc. access to this program.  By using this program,
 the user acknowledges that Gaussian, Inc. is engaged in the
 business of creating and licensing software in the field of
 computational chemistry and represents and warrants to the
 licensee that it is not a competitor of Gaussian, Inc. and that
 it will not use this program in any manner prohibited above.
 ---------------------------------------------------------------
  

 Cite this work as:
 Gaussian 16, Revision A.03,
 M. J. Frisch, G. W. Trucks, H. B. Schlegel, G. E. Scuseria, 
 M. A. Robb, J. R. Cheeseman, G. Scalmani, V. Barone, 
 G. A. Petersson, H. Nakatsuji, X. Li, M. Caricato, A. V. Marenich, 
 J. Bloino, B. G. Janesko, R. Gomperts, B. Mennucci, H. P. Hratchian, 
 J. V. Ortiz, A. F. Izmaylov, J. L. Sonnenberg, D. Williams-Young, 
 F. Ding, F. Lipparini, F. Egidi, J. Goings, B. Peng, A. Petrone, 
 T. Henderson, D. Ranasinghe, V. G. Zakrzewski, J. Gao, N. Rega, 
 G. Zheng, W. Liang, M. Hada, M. Ehara, K. Toyota, R. Fukuda, 
 J. Hasegawa, M. Ishida, T. Nakajima, Y. Honda, O. Kitao, H. Nakai, 
 T. Vreven, K. Throssell, J. A. Montgomery, Jr., J. E. Peralta, 
 F. Ogliaro, M. J. Bearpark, J. J. Heyd, E. N. Brothers, K. N. Kudin, 
 V. N. Staroverov, T. A. Keith, R. Kobayashi, J. Normand, 
 K. Raghavachari, A. P. Rendell, J. C. Burant, S. S. Iyengar, 
 J. Tomasi, M. Cossi, J. M. Millam, M. Klene, C. Adamo, R. Cammi, 
 J. W. Ochterski, R. L. Martin, K. Morokuma, O. Farkas, 
 J. B. Foresman, and D. J. Fox, Gaussian, Inc., Wallingford CT, 2016.
 
 ******************************************
 Gaussian 16:  ES64L-G16RevA.03 25-Dec-2016
                26-Dec-2024 
 ******************************************
 %nprocshared=4
 Will use up to    4 processors via shared memory.
 %mem=4GB
 ----------------
 # b3lyp/6-31g(d)
 ----------------
 1/38=1,172=1/1;
 2/12=2,17=6,18=5,40=1/2;
 3/5=1,6=6,7=1,11=2,25=1,30=1,74=-5/1,2,3;
 4//1;
 5/5=2,38=5/2;
 6/7=2,8=2,9=2,10=2,28=1/1;
 99/5=1,9=1/99;
 -------------------
 tmpdir/M3_ref_6.gjf
 -------------------
 Symbolic Z-matrix:
 Charge =  0 Multiplicity = 1
 C                    -2.58198  -0.0458    0.06552 
 C                    -1.35441   0.7147    0.303 
 C                    -0.09371   0.00656  -0.23322 
 C                    -3.58664  -0.68445  -0.13711 
 H                    -4.47463  -1.24717  -0.31445 
 H                    -1.24209   0.89544   1.38155 
 H                    -1.44664   1.70669  -0.16249 
 H                     0.82527   0.59086  -0.04027 
 H                    -0.19481  -0.16538  -1.31101 
 H                     0.00093  -0.97452   0.24421 
 
                          Input orientation:                          
 ---------------------------------------------------------------------
 Center     Atomic      Atomic             Coordinates (Angstroms)
 Number     Number       Type             X           Y           Z
 ---------------------------------------------------------------------
      1          6           0       -2.581978   -0.045798    0.065521
      2          6           0       -1.354410    0.714704    0.303001
      3          6           0       -0.093708    0.006563   -0.233217
      4          6           0       -3.586639   -0.684453   -0.137110
      5          1           0       -4.474630   -1.247165   -0.314453
      6          1           0       -1.242090    0.895439    1.381546
      7          1           0       -1.446643    1.706693   -0.162488
      8          1           0        0.825275    0.590857   -0.040265
      9          1           0       -0.194808   -0.165380   -1.311007
     10          1           0        0.000930   -0.974522    0.244205
 ---------------------------------------------------------------------
                    Distance matrix (angstroms):
                    1          2          3          4          5
     1  C    0.000000
     2  C    1.463449   0.000000
     3  C    2.506686   1.542194   0.000000
     4  C    1.207594   2.670989   3.561925   0.000000
     5  H    2.273718   3.737105   4.557511   1.066125   0.000000
     6  H    2.100750   1.099336   2.171714   3.209250   4.232786
     7  H    2.100523   1.099650   2.173908   3.209019   4.232857
     8  H    3.467837   2.210022   1.105965   4.593558   5.616270
     9  H    2.758208   2.173533   1.096092   3.626567   4.525512
    10  H    2.750613   2.166538   1.095178   3.619419   4.518525
                    6          7          8          9         10
     6  H    0.000000
     7  H    1.756137   0.000000
     8  H    2.527511   2.534095   0.000000
     9  H    3.077658   2.528012   1.796454   0.000000
    10  H    2.517022   3.074050   1.791893   1.764004   0.000000
 Stoichiometry    C4H6
 Framework group  C1[X(C4H6)]
 Deg. of freedom    24
 Full point group                 C1      NOp   1
 Largest Abelian subgroup         C1      NOp   1
 Largest concise Abelian subgroup C1      NOp   1
                         Standard orientation:                         
 ---------------------------------------------------------------------
 Center     Atomic      Atomic             Coordinates (Angstroms)
 Number     Number       Type             X           Y           Z
 ---------------------------------------------------------------------
      1          6           0       -0.832018    0.158600   -0.000280
      2          6           0        0.546401    0.650174   -0.000570
      3          6           0        1.590742   -0.484600   -0.000660
      4          6           0       -1.964188   -0.261489    0.000168
      5          1           0       -2.964435   -0.630445    0.001292
      6          1           0        0.703227    1.292082    0.878009
      7          1           0        0.701417    1.294454   -0.878126
      8          1           0        2.626408   -0.096636    0.005570
      9          1           0        1.446967   -1.121119   -0.881336
     10          1           0        1.440793   -1.114445    0.882644
 ---------------------------------------------------------------------
 Rotational constants (GHZ):          27.4185329           4.4964814           4.0565924
 Standard basis: 6-31G(d) (6D, 7F)
 There are    72 symmetry adapted cartesian basis functions of A   symmetry.
 There are    72 symmetry adapted basis functions of A   symmetry.
    72 basis functions,   136 primitive gaussians,    72 cartesian basis functions
    15 alpha electrons       15 beta electrons
       nuclear repulsion energy       102.4927363860 Hartrees.
 NAtoms=   10 NActive=   10 NUniq=   10 SFac= 1.00D+00 NAtFMM=   60 NAOKFM=F Big=F
 Integral buffers will be    131072 words long.
 Raffenetti 2 integral format.
 Two-electron integral symmetry is turned on.
 One-electron integrals computed using PRISM.
 NBasis=    72 RedAO= T EigKep=  4.93D-04  NBF=    72
 NBsUse=    72 1.00D-06 EigRej= -1.00D+00 NBFU=    72
 ExpMin= 1.61D-01 ExpMax= 3.05D+03 ExpMxC= 4.57D+02 IAcc=3 IRadAn=         5 AccDes= 0.00D+00
 Harris functional with IExCor=  402 and IRadAn=       5 diagonalized for initial guess.
 HarFok:  IExCor=  402 AccDes= 0.00D+00 IRadAn=         5 IDoV= 1 UseB2=F ITyADJ=14
 ICtDFT=  3500011 ScaDFX=  1.000000  1.000000  1.000000  1.000000
 FoFCou: FMM=F IPFlag=           0 FMFlag=      100000 FMFlg1=           0
         NFxFlg=           0 DoJE=T BraDBF=F KetDBF=T FulRan=T
         wScrn=  0.000000 ICntrl=       500 IOpCl=  0 I1Cent=   200000004 NGrid=           0
         NMat0=    1 NMatS0=      1 NMatT0=    0 NMatD0=    1 NMtDS0=    0 NMtDT0=    0
 Petite list used in FoFCou.
 Keep R1 ints in memory in canonical form, NReq=7040236.
 Requested convergence on RMS density matrix=1.00D-08 within 128 cycles.
 Requested convergence on MAX density matrix=1.00D-06.
 Requested convergence on             energy=1.00D-06.
 No special actions if energy rises.
 Integral accuracy reduced to 1.0D-05 until final iterations.
 Initial convergence to 1.0D-05 achieved.  Increase integral accuracy.
 SCF Done:  E(RB3LYP) =  -155.966587279     A.U. after   13 cycles
            NFock= 13  Conv=0.15D-08     -V/T= 2.0104

 **********************************************************************

            Population analysis using the SCF density.

 **********************************************************************

 Orbital symmetries:
       Occupied  (A) (A) (A) (A) (A) (A) (A) (A) (A) (A) (A) (A)
                 (A) (A) (A)
       Virtual   (A) (A) (A) (A) (A) (A) (A) (A) (A) (A) (A) (A)
                 (A) (A) (A) (A) (A) (A) (A) (A) (A) (A) (A) (A)
                 (A) (A) (A) (A) (A) (A) (A) (A) (A) (A) (A) (A)
                 (A) (A) (A) (A) (A) (A) (A) (A) (A) (A) (A) (A)
                 (A) (A) (A) (A) (A) (A) (A) (A) (A)
 The electronic state is 1-A.
 Alpha  occ. eigenvalues --  -10.20994 -10.18557 -10.18124 -10.17225  -0.79439
 Alpha  occ. eigenvalues --   -0.71746  -0.63820  -0.52276  -0.46438  -0.45645
 Alpha  occ. eigenvalues --   -0.39685  -0.37134  -0.36254  -0.25942  -0.25833
 Alpha virt. eigenvalues --    0.05614   0.06277   0.11073   0.13217   0.15077
 Alpha virt. eigenvalues --    0.15468   0.16972   0.20286   0.23097   0.26268
 Alpha virt. eigenvalues --    0.42558   0.46404   0.52542   0.52912   0.55216
 Alpha virt. eigenvalues --    0.56845   0.61279   0.67584   0.68414   0.76890
 Alpha virt. eigenvalues --    0.79594   0.80035   0.82045   0.86448   0.88633
 Alpha virt. eigenvalues --    0.89818   0.91573   0.96474   1.00928   1.18283
 Alpha virt. eigenvalues --    1.28752   1.38416   1.42796   1.53179   1.55780
 Alpha virt. eigenvalues --    1.57135   1.64304   1.69445   1.80511   1.88783
 Alpha virt. eigenvalues --    1.93674   1.98540   1.99047   2.01341   2.14420
 Alpha virt. eigenvalues --    2.25336   2.30572   2.31223   2.49306   2.63297
 Alpha virt. eigenvalues --    2.71400   2.80680   3.35927   4.11508   4.21581
 Alpha virt. eigenvalues --    4.32538   4.68672
          Condensed to atoms (all electrons):
               1          2          3          4          5          6
     1  C    4.598122   0.382277  -0.038546   0.791558   0.005763  -0.030858
     2  C    0.382277   5.194229   0.349901  -0.168808   0.002444   0.363549
     3  C   -0.038546   0.349901   5.081310  -0.000596  -0.000014  -0.037775
     4  C    0.791558  -0.168808  -0.000596   5.513494   0.347365   0.000351
     5  H    0.005763   0.002444  -0.000014   0.347365   0.460626  -0.000025
     6  H   -0.030858   0.363549  -0.037775   0.000351  -0.000025   0.573645
     7  H   -0.030765   0.363321  -0.037760   0.000415  -0.000024  -0.037463
     8  H    0.004283  -0.026753   0.362920   0.000018   0.000001  -0.002113
     9  H   -0.002768  -0.033180   0.378494   0.000272  -0.000011   0.004997
    10  H   -0.002874  -0.033694   0.378375   0.000277  -0.000011  -0.004702
               7          8          9         10
     1  C   -0.030765   0.004283  -0.002768  -0.002874
     2  C    0.363321  -0.026753  -0.033180  -0.033694
     3  C   -0.037760   0.362920   0.378494   0.378375
     4  C    0.000415   0.000018   0.000272   0.000277
     5  H   -0.000024   0.000001  -0.000011  -0.000011
     6  H   -0.037463  -0.002113   0.004997  -0.004702
     7  H    0.573645  -0.002099  -0.004617   0.005053
     8  H   -0.002099   0.573004  -0.027679  -0.028033
     9  H   -0.004617  -0.027679   0.555917  -0.030968
    10  H    0.005053  -0.028033  -0.030968   0.557011
 Mulliken charges:
               1
     1  C    0.323808
     2  C   -0.393286
     3  C   -0.436310
     4  C   -0.484347
     5  H    0.183887
     6  H    0.170394
     7  H    0.170294
     8  H    0.146450
     9  H    0.159544
    10  H    0.159566
 Sum of Mulliken charges =  -0.00000
 Mulliken charges with hydrogens summed into heavy atoms:
               1
     1  C    0.323808
     2  C   -0.052598
     3  C    0.029250
     4  C   -0.300460
 Electronic spatial extent (au):  <R**2>=            335.6819
 Charge=             -0.0000 electrons
 Dipole moment (field-independent basis, Debye):
    X=              0.6307    Y=              0.1351    Z=              0.0041  Tot=              0.6450
 Quadrupole moment (field-independent basis, Debye-Ang):
   XX=            -21.7382   YY=            -24.9613   ZZ=            -25.4806
   XY=              1.8158   XZ=              0.0035   YZ=              0.0058
 Traceless Quadrupole moment (field-independent basis, Debye-Ang):
   XX=              2.3218   YY=             -0.9012   ZZ=             -1.4206
   XY=              1.8158   XZ=              0.0035   YZ=              0.0058
 Octapole moment (field-independent basis, Debye-Ang**2):
  XXX=            -12.4891  YYY=              0.9514  ZZZ=              0.0068  XYY=              1.2619
  XXY=             -4.8038  XXZ=              0.0351  XZZ=              2.6497  YZZ=              0.4725
  YYZ=             -0.0136  XYZ=              0.0173
 Hexadecapole moment (field-independent basis, Debye-Ang**3):
 XXXX=           -286.6269 YYYY=            -77.1224 ZZZZ=            -39.2462 XXXY=             20.0651
 XXXZ=              0.0270 YYYX=              1.5551 YYYZ=              0.0211 ZZZX=              0.0038
 ZZZY=              0.0066 XXYY=            -70.3721 XXZZ=            -68.0050 YYZZ=            -17.5341
 XXYZ=              0.0170 YYXZ=             -0.0236 ZZXY=             -0.0003
 N-N= 1.024927363860D+02 E-N=-5.654135214145D+02  KE= 1.543684284416D+02
 1\1\GINC-NODE87\SP\RB3LYP\6-31G(d)\C4H6\YANZ\26-Dec-2024\0\\# b3lyp/6-
 31g(d)\\tmpdir/M3_ref_6.gjf\\0,1\C,0,-2.581978,-0.045798,0.065521\C,0,
 -1.35441,0.714704,0.303001\C,0,-0.093708,0.006563,-0.233217\C,0,-3.586
 639,-0.684453,-0.13711\H,0,-4.47463,-1.247165,-0.314453\H,0,-1.24209,0
 .895439,1.381546\H,0,-1.446643,1.706693,-0.162488\H,0,0.82527469,0.590
 857,-0.04026519\H,0,-0.194808,-0.16538,-1.311007\H,0,0.00093,-0.974522
 ,0.244205\\Version=ES64L-G16RevA.03\State=1-A\HF=-155.9665873\RMSD=1.4
 92e-09\Dipole=0.2289227,0.106033,0.0274322\Quadrupole=1.0005084,-0.039
 0225,-0.9614859,1.6365176,0.5901132,0.3236409\PG=C01 [X(C4H6)]\\@


 A true friend is someone who is there for
 you when he'd rather be anywhere else.
                               -- Len Wein
 Job cpu time:       0 days  0 hours  0 minutes 21.2 seconds.
 Elapsed time:       0 days  0 hours  0 minutes  5.7 seconds.
 File lengths (MBytes):  RWF=      6 Int=      0 D2E=      0 Chk=      1 Scr=      1
 Normal termination of Gaussian 16 at Thu Dec 26 10:45:55 2024.
