 Entering Gaussian System, Link 0=g16
 Initial command:
 /share/apps/gaussian/g16/l1.exe "/tmp/103466.mgr/Gau-119810.inp" -scrdir="/tmp/103466.mgr/"
 Entering Link 1 = /share/apps/gaussian/g16/l1.exe PID=    119811.
  
 Copyright (c) 1988,1990,1992,1993,1995,1998,2003,2009,2016,
            Gaussian, Inc.  All Rights Reserved.
  
 This is part of the Gaussian(R) 16 program.  It is based on
 the Gaussian(R) 09 system (copyright 2009, Gaussian, Inc.),
 the Gaussian(R) 03 system (copyright 2003, Gaussian, Inc.),
 the Gaussian(R) 98 system (copyright 1998, Gaussian, Inc.),
 the Gaussian(R) 94 system (copyright 1995, Gaussian, Inc.),
 the Gaussian 92(TM) system (copyright 1992, Gaussian, Inc.),
 the Gaussian 90(TM) system (copyright 1990, Gaussian, Inc.),
 the Gaussian 88(TM) system (copyright 1988, Gaussian, Inc.),
 the Gaussian 86(TM) system (copyright 1986, Carnegie Mellon
 University), and the Gaussian 82(TM) system (copyright 1983,
 Carnegie Mellon University). Gaussian is a federally registered
 trademark of Gaussian, Inc.
  
 This software contains proprietary and confidential information,
 including trade secrets, belonging to Gaussian, Inc.
  
 This software is provided under written license and may be
 used, copied, transmitted, or stored only in accord with that
 written license.
  
 The following legend is applicable only to US Government
 contracts under FAR:
  
                    RESTRICTED RIGHTS LEGEND
  
 Use, reproduction and disclosure by the US Government is
 subject to restrictions as set forth in subparagraphs (a)
 and (c) of the Commercial Computer Software - Restricted
 Rights clause in FAR 52.227-19.
  
 Gaussian, Inc.
 340 Quinnipiac St., Bldg. 40, Wallingford CT 06492
  
  
 ---------------------------------------------------------------
 Warning -- This program may not be used in any manner that
 competes with the business of Gaussian, Inc. or will provide
 assistance to any competitor of Gaussian, Inc.  The licensee
 of this program is prohibited from giving any competitor of
 Gaussian, Inc. access to this program.  By using this program,
 the user acknowledges that Gaussian, Inc. is engaged in the
 business of creating and licensing software in the field of
 computational chemistry and represents and warrants to the
 licensee that it is not a competitor of Gaussian, Inc. and that
 it will not use this program in any manner prohibited above.
 ---------------------------------------------------------------
  

 Cite this work as:
 Gaussian 16, Revision A.03,
 M. J. Frisch, G. W. Trucks, H. B. Schlegel, G. E. Scuseria, 
 M. A. Robb, J. R. Cheeseman, G. Scalmani, V. Barone, 
 G. A. Petersson, H. Nakatsuji, X. Li, M. Caricato, A. V. Marenich, 
 J. Bloino, B. G. Janesko, R. Gomperts, B. Mennucci, H. P. Hratchian, 
 J. V. Ortiz, A. F. Izmaylov, J. L. Sonnenberg, D. Williams-Young, 
 F. Ding, F. Lipparini, F. Egidi, J. Goings, B. Peng, A. Petrone, 
 T. Henderson, D. Ranasinghe, V. G. Zakrzewski, J. Gao, N. Rega, 
 G. Zheng, W. Liang, M. Hada, M. Ehara, K. Toyota, R. Fukuda, 
 J. Hasegawa, M. Ishida, T. Nakajima, Y. Honda, O. Kitao, H. Nakai, 
 T. Vreven, K. Throssell, J. A. Montgomery, Jr., J. E. Peralta, 
 F. Ogliaro, M. J. Bearpark, J. J. Heyd, E. N. Brothers, K. N. Kudin, 
 V. N. Staroverov, T. A. Keith, R. Kobayashi, J. Normand, 
 K. Raghavachari, A. P. Rendell, J. C. Burant, S. S. Iyengar, 
 J. Tomasi, M. Cossi, J. M. Millam, M. Klene, C. Adamo, R. Cammi, 
 J. W. Ochterski, R. L. Martin, K. Morokuma, O. Farkas, 
 J. B. Foresman, and D. J. Fox, Gaussian, Inc., Wallingford CT, 2016.
 
 ******************************************
 Gaussian 16:  ES64L-G16RevA.03 25-Dec-2016
                26-Dec-2024 
 ******************************************
 %nprocshared=4
 Will use up to    4 processors via shared memory.
 %mem=4GB
 ----------------
 # b3lyp/6-31g(d)
 ----------------
 1/38=1,172=1/1;
 2/12=2,17=6,18=5,40=1/2;
 3/5=1,6=6,7=1,11=2,25=1,30=1,74=-5/1,2,3;
 4//1;
 5/5=2,38=5/2;
 6/7=2,8=2,9=2,10=2,28=1/1;
 99/5=1,9=1/99;
 --------------------
 tmpdir/M3_ref_23.gjf
 --------------------
 Symbolic Z-matrix:
 Charge =  0 Multiplicity = 1
 N                     2.3613    0.12633  -0.48885 
 C                     1.1758    0.81373   0.03333 
 C                    -0.09371   0.00656  -0.23322 
 H                     2.60016  -0.75264   0.23654 
 H                     3.16244   0.74581  -0.35677 
 H                     1.1315    1.77818  -0.49221 
 H                     1.27141   1.02376   1.11168 
 H                    -1.00631   0.51918   0.15494 
 H                    -0.19481  -0.16538  -1.31101 
 H                     0.00093  -0.97452   0.24421 
 
                          Input orientation:                          
 ---------------------------------------------------------------------
 Center     Atomic      Atomic             Coordinates (Angstroms)
 Number     Number       Type             X           Y           Z
 ---------------------------------------------------------------------
      1          7           0        2.361301    0.126334   -0.488845
      2          6           0        1.175805    0.813726    0.033333
      3          6           0       -0.093708    0.006563   -0.233217
      4          1           0        2.600158   -0.752639    0.236541
      5          1           0        3.162444    0.745811   -0.356766
      6          1           0        1.131503    1.778183   -0.492214
      7          1           0        1.271413    1.023758    1.111676
      8          1           0       -1.006313    0.519176    0.154944
      9          1           0       -0.194808   -0.165380   -1.311007
     10          1           0        0.000930   -0.974522    0.244205
 ---------------------------------------------------------------------
                    Distance matrix (angstroms):
                    1          2          3          4          5
     1  N    0.000000
     2  C    1.466485   0.000000
     3  C    2.471186   1.527817   0.000000
     4  H    1.164402   2.126870   2.837953   0.000000
     5  H    1.021287   2.025716   3.341299   1.706907   0.000000
     6  H    2.059374   1.099245   2.169530   3.015476   2.282293
     7  H    2.134220   1.102759   2.169557   2.384746   2.410306
     8  H    3.451030   2.205263   1.116373   3.825024   4.206155
     9  H    2.700878   2.155105   1.096092   3.248325   3.607213
    10  H    2.705660   2.150030   1.095178   2.608693   3.649093
                    6          7          8          9         10
     6  H    0.000000
     7  H    1.777975   0.000000
     8  H    2.564014   2.521502   0.000000
     9  H    2.491377   3.071359   1.810019   0.000000
    10  H    3.065598   2.521856   1.803785   1.764004   0.000000
 Stoichiometry    C2H7N
 Framework group  C1[X(C2H7N)]
 Deg. of freedom    24
 Full point group                 C1      NOp   1
 Largest Abelian subgroup         C1      NOp   1
 Largest concise Abelian subgroup C1      NOp   1
                         Standard orientation:                         
 ---------------------------------------------------------------------
 Center     Atomic      Atomic             Coordinates (Angstroms)
 Number     Number       Type             X           Y           Z
 ---------------------------------------------------------------------
      1          7           0        1.204941   -0.323412   -0.149861
      2          6           0        0.047138    0.549211    0.070592
      3          6           0       -1.261758   -0.232084   -0.032321
      4          1           0        1.347134   -0.961070    0.813989
      5          1           0        2.040353    0.264048   -0.151445
      6          1           0        0.095349    1.316977   -0.714615
      7          1           0        0.106164    1.062208    1.044979
      8          1           0       -2.153550    0.419810    0.129014
      9          1           0       -1.323616   -0.708284   -1.017625
     10          1           0       -1.258704   -1.032565    0.715100
 ---------------------------------------------------------------------
 Rotational constants (GHZ):          32.4148937           8.7533163           7.7805733
 Standard basis: 6-31G(d) (6D, 7F)
 There are    59 symmetry adapted cartesian basis functions of A   symmetry.
 There are    59 symmetry adapted basis functions of A   symmetry.
    59 basis functions,   112 primitive gaussians,    59 cartesian basis functions
    13 alpha electrons       13 beta electrons
       nuclear repulsion energy        82.0757358014 Hartrees.
 NAtoms=   10 NActive=   10 NUniq=   10 SFac= 1.00D+00 NAtFMM=   60 NAOKFM=F Big=F
 Integral buffers will be    131072 words long.
 Raffenetti 2 integral format.
 Two-electron integral symmetry is turned on.
 One-electron integrals computed using PRISM.
 NBasis=    59 RedAO= T EigKep=  5.90D-03  NBF=    59
 NBsUse=    59 1.00D-06 EigRej= -1.00D+00 NBFU=    59
 ExpMin= 1.61D-01 ExpMax= 4.17D+03 ExpMxC= 6.27D+02 IAcc=3 IRadAn=         5 AccDes= 0.00D+00
 Harris functional with IExCor=  402 and IRadAn=       5 diagonalized for initial guess.
 HarFok:  IExCor=  402 AccDes= 0.00D+00 IRadAn=         5 IDoV= 1 UseB2=F ITyADJ=14
 ICtDFT=  3500011 ScaDFX=  1.000000  1.000000  1.000000  1.000000
 FoFCou: FMM=F IPFlag=           0 FMFlag=      100000 FMFlg1=           0
         NFxFlg=           0 DoJE=T BraDBF=F KetDBF=T FulRan=T
         wScrn=  0.000000 ICntrl=       500 IOpCl=  0 I1Cent=   200000004 NGrid=           0
         NMat0=    1 NMatS0=      1 NMatT0=    0 NMatD0=    1 NMtDS0=    0 NMtDT0=    0
 Petite list used in FoFCou.
 Keep R1 ints in memory in canonical form, NReq=5087508.
 Requested convergence on RMS density matrix=1.00D-08 within 128 cycles.
 Requested convergence on MAX density matrix=1.00D-06.
 Requested convergence on             energy=1.00D-06.
 No special actions if energy rises.
 Integral accuracy reduced to 1.0D-05 until final iterations.
 Initial convergence to 1.0D-05 achieved.  Increase integral accuracy.
 SCF Done:  E(RB3LYP) =  -135.157310598     A.U. after   12 cycles
            NFock= 12  Conv=0.27D-08     -V/T= 2.0112

 **********************************************************************

            Population analysis using the SCF density.

 **********************************************************************

 Orbital symmetries:
       Occupied  (A) (A) (A) (A) (A) (A) (A) (A) (A) (A) (A) (A)
                 (A)
       Virtual   (A) (A) (A) (A) (A) (A) (A) (A) (A) (A) (A) (A)
                 (A) (A) (A) (A) (A) (A) (A) (A) (A) (A) (A) (A)
                 (A) (A) (A) (A) (A) (A) (A) (A) (A) (A) (A) (A)
                 (A) (A) (A) (A) (A) (A) (A) (A) (A) (A)
 The electronic state is 1-A.
 Alpha  occ. eigenvalues --  -14.32160 -10.20424 -10.17155  -0.86654  -0.71937
 Alpha  occ. eigenvalues --   -0.59148  -0.47332  -0.45648  -0.40320  -0.36369
 Alpha  occ. eigenvalues --   -0.35916  -0.33593  -0.23431
 Alpha virt. eigenvalues --    0.06226   0.11838   0.13158   0.16398   0.16551
 Alpha virt. eigenvalues --    0.18200   0.19853   0.23681   0.25069   0.53226
 Alpha virt. eigenvalues --    0.55334   0.56508   0.58122   0.67218   0.67862
 Alpha virt. eigenvalues --    0.72464   0.81343   0.83094   0.86981   0.88052
 Alpha virt. eigenvalues --    0.88964   0.89876   0.95114   0.96004   0.98573
 Alpha virt. eigenvalues --    1.08128   1.34171   1.45973   1.49499   1.57971
 Alpha virt. eigenvalues --    1.75732   1.85130   1.94248   1.95668   2.04367
 Alpha virt. eigenvalues --    2.15049   2.17357   2.30752   2.32632   2.36124
 Alpha virt. eigenvalues --    2.43855   2.60083   2.72245   3.75014   4.18463
 Alpha virt. eigenvalues --    4.41254
          Condensed to atoms (all electrons):
               1          2          3          4          5          6
     1  N    6.955059   0.296876  -0.063489   0.285229   0.290129  -0.043836
     2  C    0.296876   4.864981   0.377524  -0.036848  -0.034143   0.381666
     3  C   -0.063489   0.377524   5.083528  -0.003535   0.006966  -0.034128
     4  H    0.285229  -0.036848  -0.003535   0.538594  -0.030052   0.006843
     5  H    0.290129  -0.034143   0.006966  -0.030052   0.478347  -0.005074
     6  H   -0.043836   0.381666  -0.034128   0.006843  -0.005074   0.602110
     7  H   -0.045372   0.374046  -0.053178  -0.009421  -0.003264  -0.044953
     8  H    0.003778  -0.025897   0.361132  -0.000194  -0.000254  -0.001951
     9  H    0.004803  -0.033020   0.371355  -0.000671  -0.000143  -0.006060
    10  H   -0.003419  -0.037065   0.376763   0.005267  -0.000066   0.005386
               7          8          9         10
     1  N   -0.045372   0.003778   0.004803  -0.003419
     2  C    0.374046  -0.025897  -0.033020  -0.037065
     3  C   -0.053178   0.361132   0.371355   0.376763
     4  H   -0.009421  -0.000194  -0.000671   0.005267
     5  H   -0.003264  -0.000254  -0.000143  -0.000066
     6  H   -0.044953  -0.001951  -0.006060   0.005386
     7  H    0.665029   0.000776   0.006166  -0.005327
     8  H    0.000776   0.581669  -0.025444  -0.028895
     9  H    0.006166  -0.025444   0.556077  -0.032281
    10  H   -0.005327  -0.028895  -0.032281   0.581158
 Mulliken charges:
               1
     1  N   -0.679758
     2  C   -0.128121
     3  C   -0.422938
     4  H    0.244788
     5  H    0.297554
     6  H    0.139998
     7  H    0.115497
     8  H    0.135281
     9  H    0.159218
    10  H    0.138480
 Sum of Mulliken charges =  -0.00000
 Mulliken charges with hydrogens summed into heavy atoms:
               1
     1  N   -0.137416
     2  C    0.127375
     3  C    0.010041
 Electronic spatial extent (au):  <R**2>=            210.4024
 Charge=              0.0000 electrons
 Dipole moment (field-independent basis, Debye):
    X=              0.2936    Y=              0.8517    Z=              1.2166  Tot=              1.5138
 Quadrupole moment (field-independent basis, Debye-Ang):
   XX=            -19.1399   YY=            -20.9863   ZZ=            -20.9094
   XY=              1.0732   XZ=              1.7402   YZ=             -1.7551
 Traceless Quadrupole moment (field-independent basis, Debye-Ang):
   XX=              1.2053   YY=             -0.6411   ZZ=             -0.5642
   XY=              1.0732   XZ=              1.7402   YZ=             -1.7551
 Octapole moment (field-independent basis, Debye-Ang**2):
  XXX=              8.7406  YYY=             -0.0845  ZZZ=              0.8687  XYY=              0.8252
  XXY=              2.4492  XXZ=              1.9629  XZZ=              0.6526  YZZ=             -0.2915
  YYZ=              1.1245  XYZ=             -2.2429
 Hexadecapole moment (field-independent basis, Debye-Ang**3):
 XXXX=           -164.5153 YYYY=            -61.7540 ZZZZ=            -38.4971 XXXY=              1.0112
 XXXZ=              1.9166 YYYX=              0.0558 YYYZ=             -2.8355 ZZZX=              2.4626
 ZZZY=             -1.5385 XXYY=            -39.4978 XXZZ=            -36.9947 YYZZ=            -15.4929
 XXYZ=             -2.7227 YYXZ=              1.5893 ZZXY=              0.4931
 N-N= 8.207573580136D+01 E-N=-4.773041958821D+02  KE= 1.336660172831D+02
 1\1\GINC-NODE87\SP\RB3LYP\6-31G(d)\C2H7N1\YANZ\26-Dec-2024\0\\# b3lyp/
 6-31g(d)\\tmpdir/M3_ref_23.gjf\\0,1\N,0,2.361301,0.126334,-0.488845\C,
 0,1.175805,0.813726,0.033333\C,0,-0.093708,0.006563,-0.233217\H,0,2.60
 015847,-0.75263917,0.23654067\H,0,3.162444,0.745811,-0.356766\H,0,1.13
 1503,1.778183,-0.492214\H,0,1.271413,1.023758,1.111676\H,0,-1.00631253
 ,0.51917636,0.1549437\H,0,-0.194808,-0.16538,-1.311007\H,0,0.00093,-0.
 974522,0.244205\\Version=ES64L-G16RevA.03\State=1-A\HF=-135.1573106\RM
 SD=2.720e-09\Dipole=0.1287619,0.188499,0.5500882\Quadrupole=0.9806622,
 0.3135007,-1.2941629,0.3790853,1.442467,-1.0121184\PG=C01 [X(C2H7N1)]\
 \@


 Experience is what you get when you don't get what you want.
 -- Dan Stanford
 Job cpu time:       0 days  0 hours  0 minutes 15.8 seconds.
 Elapsed time:       0 days  0 hours  0 minutes  4.1 seconds.
 File lengths (MBytes):  RWF=      6 Int=      0 D2E=      0 Chk=      1 Scr=      1
 Normal termination of Gaussian 16 at Thu Dec 26 10:46:03 2024.
