 Entering Gaussian System, Link 0=g16
 Initial command:
 /share/apps/gaussian/g16/l1.exe "/tmp/103466.mgr/Gau-119753.inp" -scrdir="/tmp/103466.mgr/"
 Entering Link 1 = /share/apps/gaussian/g16/l1.exe PID=    119754.
  
 Copyright (c) 1988,1990,1992,1993,1995,1998,2003,2009,2016,
            Gaussian, Inc.  All Rights Reserved.
  
 This is part of the Gaussian(R) 16 program.  It is based on
 the Gaussian(R) 09 system (copyright 2009, Gaussian, Inc.),
 the Gaussian(R) 03 system (copyright 2003, Gaussian, Inc.),
 the Gaussian(R) 98 system (copyright 1998, Gaussian, Inc.),
 the Gaussian(R) 94 system (copyright 1995, Gaussian, Inc.),
 the Gaussian 92(TM) system (copyright 1992, Gaussian, Inc.),
 the Gaussian 90(TM) system (copyright 1990, Gaussian, Inc.),
 the Gaussian 88(TM) system (copyright 1988, Gaussian, Inc.),
 the Gaussian 86(TM) system (copyright 1986, Carnegie Mellon
 University), and the Gaussian 82(TM) system (copyright 1983,
 Carnegie Mellon University). Gaussian is a federally registered
 trademark of Gaussian, Inc.
  
 This software contains proprietary and confidential information,
 including trade secrets, belonging to Gaussian, Inc.
  
 This software is provided under written license and may be
 used, copied, transmitted, or stored only in accord with that
 written license.
  
 The following legend is applicable only to US Government
 contracts under FAR:
  
                    RESTRICTED RIGHTS LEGEND
  
 Use, reproduction and disclosure by the US Government is
 subject to restrictions as set forth in subparagraphs (a)
 and (c) of the Commercial Computer Software - Restricted
 Rights clause in FAR 52.227-19.
  
 Gaussian, Inc.
 340 Quinnipiac St., Bldg. 40, Wallingford CT 06492
  
  
 ---------------------------------------------------------------
 Warning -- This program may not be used in any manner that
 competes with the business of Gaussian, Inc. or will provide
 assistance to any competitor of Gaussian, Inc.  The licensee
 of this program is prohibited from giving any competitor of
 Gaussian, Inc. access to this program.  By using this program,
 the user acknowledges that Gaussian, Inc. is engaged in the
 business of creating and licensing software in the field of
 computational chemistry and represents and warrants to the
 licensee that it is not a competitor of Gaussian, Inc. and that
 it will not use this program in any manner prohibited above.
 ---------------------------------------------------------------
  

 Cite this work as:
 Gaussian 16, Revision A.03,
 M. J. Frisch, G. W. Trucks, H. B. Schlegel, G. E. Scuseria, 
 M. A. Robb, J. R. Cheeseman, G. Scalmani, V. Barone, 
 G. A. Petersson, H. Nakatsuji, X. Li, M. Caricato, A. V. Marenich, 
 J. Bloino, B. G. Janesko, R. Gomperts, B. Mennucci, H. P. Hratchian, 
 J. V. Ortiz, A. F. Izmaylov, J. L. Sonnenberg, D. Williams-Young, 
 F. Ding, F. Lipparini, F. Egidi, J. Goings, B. Peng, A. Petrone, 
 T. Henderson, D. Ranasinghe, V. G. Zakrzewski, J. Gao, N. Rega, 
 G. Zheng, W. Liang, M. Hada, M. Ehara, K. Toyota, R. Fukuda, 
 J. Hasegawa, M. Ishida, T. Nakajima, Y. Honda, O. Kitao, H. Nakai, 
 T. Vreven, K. Throssell, J. A. Montgomery, Jr., J. E. Peralta, 
 F. Ogliaro, M. J. Bearpark, J. J. Heyd, E. N. Brothers, K. N. Kudin, 
 V. N. Staroverov, T. A. Keith, R. Kobayashi, J. Normand, 
 K. Raghavachari, A. P. Rendell, J. C. Burant, S. S. Iyengar, 
 J. Tomasi, M. Cossi, J. M. Millam, M. Klene, C. Adamo, R. Cammi, 
 J. W. Ochterski, R. L. Martin, K. Morokuma, O. Farkas, 
 J. B. Foresman, and D. J. Fox, Gaussian, Inc., Wallingford CT, 2016.
 
 ******************************************
 Gaussian 16:  ES64L-G16RevA.03 25-Dec-2016
                26-Dec-2024 
 ******************************************
 %nprocshared=4
 Will use up to    4 processors via shared memory.
 %mem=4GB
 ----------------
 # b3lyp/6-31g(d)
 ----------------
 1/38=1,172=1/1;
 2/12=2,17=6,18=5,40=1/2;
 3/5=1,6=6,7=1,11=2,25=1,30=1,74=-5/1,2,3;
 4//1;
 5/5=2,38=5/2;
 6/7=2,8=2,9=2,10=2,28=1/1;
 99/5=1,9=1/99;
 --------------------
 tmpdir/M3_ref_21.gjf
 --------------------
 Symbolic Z-matrix:
 Charge =  0 Multiplicity = 1
 N                     2.3613    0.12633  -0.48885 
 C                     1.1758    0.81373   0.03333 
 H                     1.1315    1.77818  -0.49221 
 H                     2.60016  -0.75264   0.23654 
 H                     3.16244   0.74581  -0.35677 
 H                     1.27141   1.02376   1.11168 
 H                     0.25682   0.22943  -0.15962 
 
                          Input orientation:                          
 ---------------------------------------------------------------------
 Center     Atomic      Atomic             Coordinates (Angstroms)
 Number     Number       Type             X           Y           Z
 ---------------------------------------------------------------------
      1          7           0        2.361301    0.126334   -0.488845
      2          6           0        1.175805    0.813726    0.033333
      3          1           0        1.131503    1.778183   -0.492214
      4          1           0        2.600158   -0.752639    0.236541
      5          1           0        3.162444    0.745811   -0.356766
      6          1           0        1.271413    1.023758    1.111676
      7          1           0        0.256822    0.229432   -0.159619
 ---------------------------------------------------------------------
                    Distance matrix (angstroms):
                    1          2          3          4          5
     1  N    0.000000
     2  C    1.466485   0.000000
     3  H    2.059374   1.099245   0.000000
     4  H    1.164402   2.126870   3.015476   0.000000
     5  H    1.021287   2.025716   2.282293   1.706907   0.000000
     6  H    2.134220   1.102759   1.777975   2.384746   2.410306
     7  H    2.132569   1.105965   1.809507   2.571504   2.957727
                    6          7
     6  H    0.000000
     7  H    1.810121   0.000000
 Stoichiometry    CH5N
 Framework group  C1[X(CH5N)]
 Deg. of freedom    15
 Full point group                 C1      NOp   1
 Largest Abelian subgroup         C1      NOp   1
 Largest concise Abelian subgroup C1      NOp   1
                         Standard orientation:                         
 ---------------------------------------------------------------------
 Center     Atomic      Atomic             Coordinates (Angstroms)
 Number     Number       Type             X           Y           Z
 ---------------------------------------------------------------------
      1          7           0        0.745052    0.025400   -0.153274
      2          6           0       -0.711095   -0.010885    0.016719
      3          1           0       -1.068177    0.998549   -0.232026
      4          1           0        1.178920   -0.920236    0.369566
      5          1           0        1.106334    0.784157    0.427062
      6          1           0       -0.991816   -0.217316    1.062978
      7          1           0       -1.174058   -0.757644   -0.654977
 ---------------------------------------------------------------------
 Rotational constants (GHZ):          94.9545034          22.7363677          21.8486392
 Standard basis: 6-31G(d) (6D, 7F)
 There are    40 symmetry adapted cartesian basis functions of A   symmetry.
 There are    40 symmetry adapted basis functions of A   symmetry.
    40 basis functions,    76 primitive gaussians,    40 cartesian basis functions
     9 alpha electrons        9 beta electrons
       nuclear repulsion energy        41.3598093766 Hartrees.
 NAtoms=    7 NActive=    7 NUniq=    7 SFac= 1.00D+00 NAtFMM=   60 NAOKFM=F Big=F
 Integral buffers will be    131072 words long.
 Raffenetti 2 integral format.
 Two-electron integral symmetry is turned on.
 One-electron integrals computed using PRISM.
 NBasis=    40 RedAO= T EigKep=  9.01D-03  NBF=    40
 NBsUse=    40 1.00D-06 EigRej= -1.00D+00 NBFU=    40
 ExpMin= 1.61D-01 ExpMax= 4.17D+03 ExpMxC= 6.27D+02 IAcc=3 IRadAn=         5 AccDes= 0.00D+00
 Harris functional with IExCor=  402 and IRadAn=       5 diagonalized for initial guess.
 HarFok:  IExCor=  402 AccDes= 0.00D+00 IRadAn=         5 IDoV= 1 UseB2=F ITyADJ=14
 ICtDFT=  3500011 ScaDFX=  1.000000  1.000000  1.000000  1.000000
 FoFCou: FMM=F IPFlag=           0 FMFlag=      100000 FMFlg1=           0
         NFxFlg=           0 DoJE=T BraDBF=F KetDBF=T FulRan=T
         wScrn=  0.000000 ICntrl=       500 IOpCl=  0 I1Cent=   200000004 NGrid=           0
         NMat0=    1 NMatS0=      1 NMatT0=    0 NMatD0=    1 NMtDS0=    0 NMtDT0=    0
 Petite list used in FoFCou.
 Keep R1 ints in memory in canonical form, NReq=3789243.
 Requested convergence on RMS density matrix=1.00D-08 within 128 cycles.
 Requested convergence on MAX density matrix=1.00D-06.
 Requested convergence on             energy=1.00D-06.
 No special actions if energy rises.
 Integral accuracy reduced to 1.0D-05 until final iterations.
 Initial convergence to 1.0D-05 achieved.  Increase integral accuracy.
 SCF Done:  E(RB3LYP) =  -95.8396910627     A.U. after   11 cycles
            NFock= 11  Conv=0.64D-08     -V/T= 2.0114

 **********************************************************************

            Population analysis using the SCF density.

 **********************************************************************

 Orbital symmetries:
       Occupied  (A) (A) (A) (A) (A) (A) (A) (A) (A)
       Virtual   (A) (A) (A) (A) (A) (A) (A) (A) (A) (A) (A) (A)
                 (A) (A) (A) (A) (A) (A) (A) (A) (A) (A) (A) (A)
                 (A) (A) (A) (A) (A) (A) (A)
 The electronic state is 1-A.
 Alpha  occ. eigenvalues --  -14.32233 -10.20147  -0.86107  -0.64625  -0.46949
 Alpha  occ. eigenvalues --   -0.43300  -0.39526  -0.35598  -0.23255
 Alpha virt. eigenvalues --    0.06203   0.12583   0.14169   0.17562   0.17947
 Alpha virt. eigenvalues --    0.23185   0.54591   0.56527   0.58907   0.72057
 Alpha virt. eigenvalues --    0.74672   0.79906   0.83273   0.87028   0.91541
 Alpha virt. eigenvalues --    0.91848   0.95482   1.06702   1.40517   1.50736
 Alpha virt. eigenvalues --    1.56707   1.85789   2.02104   2.05347   2.17066
 Alpha virt. eigenvalues --    2.29888   2.33377   2.36184   2.65734   3.73778
 Alpha virt. eigenvalues --    4.24048
          Condensed to atoms (all electrons):
               1          2          3          4          5          6
     1  N    6.911594   0.300921  -0.040090   0.292678   0.297974  -0.045504
     2  C    0.300921   4.940727   0.382419  -0.041311  -0.040824   0.372555
     3  H   -0.040090   0.382419   0.570238   0.006314  -0.006114  -0.038246
     4  H    0.292678  -0.041311   0.006314   0.536486  -0.031445  -0.008829
     5  H    0.297974  -0.040824  -0.006114  -0.031445   0.481257  -0.004322
     6  H   -0.045504   0.372555  -0.038246  -0.008829  -0.004322   0.642258
     7  H   -0.039678   0.383895  -0.025717  -0.001450   0.006159  -0.042274
               7
     1  N   -0.039678
     2  C    0.383895
     3  H   -0.025717
     4  H   -0.001450
     5  H    0.006159
     6  H   -0.042274
     7  H    0.563219
 Mulliken charges:
               1
     1  N   -0.677895
     2  C   -0.298381
     3  H    0.151195
     4  H    0.247557
     5  H    0.297316
     6  H    0.124362
     7  H    0.155845
 Sum of Mulliken charges =  -0.00000
 Mulliken charges with hydrogens summed into heavy atoms:
               1
     1  N   -0.133022
     2  C    0.133022
 Electronic spatial extent (au):  <R**2>=             96.1363
 Charge=             -0.0000 electrons
 Dipole moment (field-independent basis, Debye):
    X=             -0.3566    Y=             -0.0319    Z=              1.5878  Tot=              1.6277
 Quadrupole moment (field-independent basis, Debye-Ang):
   XX=            -14.1300   YY=            -12.5901   ZZ=            -15.0733
   XY=             -0.1211   XZ=              2.2651   YZ=              0.2039
 Traceless Quadrupole moment (field-independent basis, Debye-Ang):
   XX=             -0.1988   YY=              1.3410   ZZ=             -1.1422
   XY=             -0.1211   XZ=              2.2651   YZ=              0.2039
 Octapole moment (field-independent basis, Debye-Ang**2):
  XXX=              2.2294  YYY=              0.4044  ZZZ=              1.5512  XYY=              1.6652
  XXY=             -0.1747  XXZ=              2.1420  XZZ=             -0.4330  YZZ=             -0.1944
  YYZ=              0.5378  XYZ=             -0.0612
 Hexadecapole moment (field-independent basis, Debye-Ang**3):
 XXXX=            -75.1291 YYYY=            -24.2658 ZZZZ=            -24.1990 XXXY=              0.0961
 XXXZ=              3.9516 YYYX=             -0.5142 YYYZ=              0.1544 ZZZX=              1.7327
 ZZZY=              0.3335 XXYY=            -14.5787 XXZZ=            -17.0873 YYZZ=             -7.9990
 XXYZ=              0.3490 YYXZ=              1.7770 ZZXY=              0.3999
 N-N= 4.135980937659D+01 E-N=-3.050883736566D+02  KE= 9.475549768925D+01
 1\1\GINC-NODE87\SP\RB3LYP\6-31G(d)\C1H5N1\YANZ\26-Dec-2024\0\\# b3lyp/
 6-31g(d)\\tmpdir/M3_ref_21.gjf\\0,1\N,0,2.361301,0.126334,-0.488845\C,
 0,1.175805,0.813726,0.033333\H,0,1.131503,1.778183,-0.492214\H,0,2.600
 15847,-0.75263917,0.23654067\H,0,3.162444,0.745811,-0.356766\H,0,1.271
 413,1.023758,1.111676\H,0,0.25682231,0.229432,-0.15961881\\Version=ES6
 4L-G16RevA.03\State=1-A\HF=-95.8396911\RMSD=6.417e-09\Dipole=0.1193972
 ,0.2069364,0.5941386\Quadrupole=0.9917072,0.3920493,-1.3837564,0.33509
 ,0.7744495,-1.2237735\PG=C01 [X(C1H5N1)]\\@


 WE SHOULD BE CAREFUL TO GET OUT OF AN EXPERIENCE ONLY THE WISDOM
 THAT IS IN IT -- AND STOP THERE;
 LEST WE BE LIKE THE CAT THAT SITS DOWN ON A HOT STOVE-LID.
 SHE WILL NEVER SIT DOWN ON A HOT STOVE LID AGAIN;
 BUT ALSO SHE WILL NEVER SIT DOWN ON A COLD ONE ANY MORE.

                                                     -- MARK TWAIN
 Job cpu time:       0 days  0 hours  0 minutes  7.9 seconds.
 Elapsed time:       0 days  0 hours  0 minutes  2.1 seconds.
 File lengths (MBytes):  RWF=      6 Int=      0 D2E=      0 Chk=      1 Scr=      1
 Normal termination of Gaussian 16 at Thu Dec 26 10:46:01 2024.
