 Entering Gaussian System, Link 0=g16
 Initial command:
 /share/apps/gaussian/g16/l1.exe "/tmp/103466.mgr/Gau-119963.inp" -scrdir="/tmp/103466.mgr/"
 Entering Link 1 = /share/apps/gaussian/g16/l1.exe PID=    119964.
  
 Copyright (c) 1988,1990,1992,1993,1995,1998,2003,2009,2016,
            Gaussian, Inc.  All Rights Reserved.
  
 This is part of the Gaussian(R) 16 program.  It is based on
 the Gaussian(R) 09 system (copyright 2009, Gaussian, Inc.),
 the Gaussian(R) 03 system (copyright 2003, Gaussian, Inc.),
 the Gaussian(R) 98 system (copyright 1998, Gaussian, Inc.),
 the Gaussian(R) 94 system (copyright 1995, Gaussian, Inc.),
 the Gaussian 92(TM) system (copyright 1992, Gaussian, Inc.),
 the Gaussian 90(TM) system (copyright 1990, Gaussian, Inc.),
 the Gaussian 88(TM) system (copyright 1988, Gaussian, Inc.),
 the Gaussian 86(TM) system (copyright 1986, Carnegie Mellon
 University), and the Gaussian 82(TM) system (copyright 1983,
 Carnegie Mellon University). Gaussian is a federally registered
 trademark of Gaussian, Inc.
  
 This software contains proprietary and confidential information,
 including trade secrets, belonging to Gaussian, Inc.
  
 This software is provided under written license and may be
 used, copied, transmitted, or stored only in accord with that
 written license.
  
 The following legend is applicable only to US Government
 contracts under FAR:
  
                    RESTRICTED RIGHTS LEGEND
  
 Use, reproduction and disclosure by the US Government is
 subject to restrictions as set forth in subparagraphs (a)
 and (c) of the Commercial Computer Software - Restricted
 Rights clause in FAR 52.227-19.
  
 Gaussian, Inc.
 340 Quinnipiac St., Bldg. 40, Wallingford CT 06492
  
  
 ---------------------------------------------------------------
 Warning -- This program may not be used in any manner that
 competes with the business of Gaussian, Inc. or will provide
 assistance to any competitor of Gaussian, Inc.  The licensee
 of this program is prohibited from giving any competitor of
 Gaussian, Inc. access to this program.  By using this program,
 the user acknowledges that Gaussian, Inc. is engaged in the
 business of creating and licensing software in the field of
 computational chemistry and represents and warrants to the
 licensee that it is not a competitor of Gaussian, Inc. and that
 it will not use this program in any manner prohibited above.
 ---------------------------------------------------------------
  

 Cite this work as:
 Gaussian 16, Revision A.03,
 M. J. Frisch, G. W. Trucks, H. B. Schlegel, G. E. Scuseria, 
 M. A. Robb, J. R. Cheeseman, G. Scalmani, V. Barone, 
 G. A. Petersson, H. Nakatsuji, X. Li, M. Caricato, A. V. Marenich, 
 J. Bloino, B. G. Janesko, R. Gomperts, B. Mennucci, H. P. Hratchian, 
 J. V. Ortiz, A. F. Izmaylov, J. L. Sonnenberg, D. Williams-Young, 
 F. Ding, F. Lipparini, F. Egidi, J. Goings, B. Peng, A. Petrone, 
 T. Henderson, D. Ranasinghe, V. G. Zakrzewski, J. Gao, N. Rega, 
 G. Zheng, W. Liang, M. Hada, M. Ehara, K. Toyota, R. Fukuda, 
 J. Hasegawa, M. Ishida, T. Nakajima, Y. Honda, O. Kitao, H. Nakai, 
 T. Vreven, K. Throssell, J. A. Montgomery, Jr., J. E. Peralta, 
 F. Ogliaro, M. J. Bearpark, J. J. Heyd, E. N. Brothers, K. N. Kudin, 
 V. N. Staroverov, T. A. Keith, R. Kobayashi, J. Normand, 
 K. Raghavachari, A. P. Rendell, J. C. Burant, S. S. Iyengar, 
 J. Tomasi, M. Cossi, J. M. Millam, M. Klene, C. Adamo, R. Cammi, 
 J. W. Ochterski, R. L. Martin, K. Morokuma, O. Farkas, 
 J. B. Foresman, and D. J. Fox, Gaussian, Inc., Wallingford CT, 2016.
 
 ******************************************
 Gaussian 16:  ES64L-G16RevA.03 25-Dec-2016
                26-Dec-2024 
 ******************************************
 %nprocshared=4
 Will use up to    4 processors via shared memory.
 %mem=4GB
 ----------------
 # b3lyp/6-31g(d)
 ----------------
 1/38=1,172=1/1;
 2/12=2,17=6,18=5,40=1/2;
 3/5=1,6=6,7=1,11=2,25=1,30=1,74=-5/1,2,3;
 4//1;
 5/5=2,38=5/2;
 6/7=2,8=2,9=2,10=2,28=1/1;
 99/5=1,9=1/99;
 --------------------
 tmpdir/M3_ref_32.gjf
 --------------------
 Symbolic Z-matrix:
 Charge =  0 Multiplicity = 1
 C                     1.1758    0.81373   0.03333 
 C                    -0.09371   0.00656  -0.23322 
 H                    -0.19481  -0.16538  -1.31101 
 H                     2.10762   0.27343  -0.3771 
 H                     1.1315    1.77818  -0.49221 
 H                     1.27141   1.02376   1.11168 
 H                    -1.00631   0.51918   0.15494 
 H                     0.00093  -0.97452   0.24421 
 
                          Input orientation:                          
 ---------------------------------------------------------------------
 Center     Atomic      Atomic             Coordinates (Angstroms)
 Number     Number       Type             X           Y           Z
 ---------------------------------------------------------------------
      1          6           0        1.175805    0.813726    0.033333
      2          6           0       -0.093708    0.006563   -0.233217
      3          1           0       -0.194808   -0.165380   -1.311007
      4          1           0        2.107618    0.273428   -0.377105
      5          1           0        1.131503    1.778183   -0.492214
      6          1           0        1.271413    1.023758    1.111676
      7          1           0       -1.006313    0.519176    0.154944
      8          1           0        0.000930   -0.974522    0.244205
 ---------------------------------------------------------------------
                    Distance matrix (angstroms):
                    1          2          3          4          5
     1  C    0.000000
     2  C    1.527817   0.000000
     3  H    2.155105   1.096092   0.000000
     4  H    1.152673   2.222106   2.523072   0.000000
     5  H    1.099245   2.169530   2.491377   1.797314   0.000000
     6  H    1.102759   2.169557   3.071359   1.865128   1.777975
     7  H    2.205263   1.116373   1.810019   3.168601   2.564014
     8  H    2.150030   1.095178   1.764004   2.526171   3.065598
                    6          7          8
     6  H    0.000000
     7  H    2.521502   0.000000
     8  H    2.521856   1.803785   0.000000
 Stoichiometry    C2H6
 Framework group  C1[X(C2H6)]
 Deg. of freedom    18
 Full point group                 C1      NOp   1
 Largest Abelian subgroup         C1      NOp   1
 Largest concise Abelian subgroup C1      NOp   1
                         Standard orientation:                         
 ---------------------------------------------------------------------
 Center     Atomic      Atomic             Coordinates (Angstroms)
 Number     Number       Type             X           Y           Z
 ---------------------------------------------------------------------
      1          6           0        0.761736   -0.010555   -0.005114
      2          6           0       -0.766017    0.001506    0.001776
      3          1           0       -1.119707    0.769525    0.699248
      4          1           0        1.185819    1.021551   -0.294192
      5          1           0        1.145663   -0.221835    1.003004
      6          1           0        1.131004   -0.802995   -0.677244
      7          1           0       -1.192367   -0.990800    0.284343
      8          1           0       -1.124726    0.278850   -0.995131
 ---------------------------------------------------------------------
 Rotational constants (GHZ):          77.1246371          20.1018488          19.8797543
 Standard basis: 6-31G(d) (6D, 7F)
 There are    42 symmetry adapted cartesian basis functions of A   symmetry.
 There are    42 symmetry adapted basis functions of A   symmetry.
    42 basis functions,    80 primitive gaussians,    42 cartesian basis functions
     9 alpha electrons        9 beta electrons
       nuclear repulsion energy        41.9077825352 Hartrees.
 NAtoms=    8 NActive=    8 NUniq=    8 SFac= 1.00D+00 NAtFMM=   60 NAOKFM=F Big=F
 Integral buffers will be    131072 words long.
 Raffenetti 2 integral format.
 Two-electron integral symmetry is turned on.
 One-electron integrals computed using PRISM.
 NBasis=    42 RedAO= T EigKep=  8.38D-03  NBF=    42
 NBsUse=    42 1.00D-06 EigRej= -1.00D+00 NBFU=    42
 ExpMin= 1.61D-01 ExpMax= 3.05D+03 ExpMxC= 4.57D+02 IAcc=3 IRadAn=         5 AccDes= 0.00D+00
 Harris functional with IExCor=  402 and IRadAn=       5 diagonalized for initial guess.
 HarFok:  IExCor=  402 AccDes= 0.00D+00 IRadAn=         5 IDoV= 1 UseB2=F ITyADJ=14
 ICtDFT=  3500011 ScaDFX=  1.000000  1.000000  1.000000  1.000000
 FoFCou: FMM=F IPFlag=           0 FMFlag=      100000 FMFlg1=           0
         NFxFlg=           0 DoJE=T BraDBF=F KetDBF=T FulRan=T
         wScrn=  0.000000 ICntrl=       500 IOpCl=  0 I1Cent=   200000004 NGrid=           0
         NMat0=    1 NMatS0=      1 NMatT0=    0 NMatD0=    1 NMtDS0=    0 NMtDT0=    0
 Petite list used in FoFCou.
 Keep R1 ints in memory in canonical form, NReq=3861446.
 Requested convergence on RMS density matrix=1.00D-08 within 128 cycles.
 Requested convergence on MAX density matrix=1.00D-06.
 Requested convergence on             energy=1.00D-06.
 No special actions if energy rises.
 Integral accuracy reduced to 1.0D-05 until final iterations.
 Initial convergence to 1.0D-05 achieved.  Increase integral accuracy.
 SCF Done:  E(RB3LYP) =  -79.8273353260     A.U. after   11 cycles
            NFock= 11  Conv=0.87D-09     -V/T= 2.0120

 **********************************************************************

            Population analysis using the SCF density.

 **********************************************************************

 Orbital symmetries:
       Occupied  (A) (A) (A) (A) (A) (A) (A) (A) (A)
       Virtual   (A) (A) (A) (A) (A) (A) (A) (A) (A) (A) (A) (A)
                 (A) (A) (A) (A) (A) (A) (A) (A) (A) (A) (A) (A)
                 (A) (A) (A) (A) (A) (A) (A) (A) (A)
 The electronic state is 1-A.
 Alpha  occ. eigenvalues --  -10.17845 -10.17435  -0.74681  -0.60517  -0.43334
 Alpha  occ. eigenvalues --   -0.42776  -0.35857  -0.34113  -0.33522
 Alpha virt. eigenvalues --    0.09964   0.14729   0.16117   0.16410   0.18390
 Alpha virt. eigenvalues --    0.18763   0.23981   0.51075   0.54785   0.55722
 Alpha virt. eigenvalues --    0.62257   0.64800   0.66809   0.85891   0.87782
 Alpha virt. eigenvalues --    0.88110   0.91797   0.92174   0.96700   1.06415
 Alpha virt. eigenvalues --    1.43462   1.51795   1.52880   1.93381   1.97565
 Alpha virt. eigenvalues --    2.01356   2.22340   2.28459   2.30473   2.30777
 Alpha virt. eigenvalues --    2.59057   4.13817   4.36012
          Condensed to atoms (all electrons):
               1          2          3          4          5          6
     1  C    5.024341   0.371842  -0.037208   0.376329   0.380198   0.381529
     2  C    0.371842   5.017033   0.382403  -0.033766  -0.036930  -0.037603
     3  H   -0.037208   0.382403   0.574713  -0.003163  -0.004552   0.004961
     4  H    0.376329  -0.033766  -0.003163   0.588507  -0.033261  -0.025688
     5  H    0.380198  -0.036930  -0.004552  -0.033261   0.581040  -0.032848
     6  H    0.381529  -0.037603   0.004961  -0.025688  -0.032848   0.572183
     7  H   -0.033647   0.380768  -0.028996   0.004230  -0.003321  -0.003493
     8  H   -0.038203   0.382634  -0.033031  -0.004222   0.005131  -0.003790
               7          8
     1  C   -0.033647  -0.038203
     2  C    0.380768   0.382634
     3  H   -0.028996  -0.033031
     4  H    0.004230  -0.004222
     5  H   -0.003321   0.005131
     6  H   -0.003493  -0.003790
     7  H    0.573842  -0.030101
     8  H   -0.030101   0.575932
 Mulliken charges:
               1
     1  C   -0.425183
     2  C   -0.426381
     3  H    0.144872
     4  H    0.131034
     5  H    0.144543
     6  H    0.144749
     7  H    0.140716
     8  H    0.145650
 Sum of Mulliken charges =   0.00000
 Mulliken charges with hydrogens summed into heavy atoms:
               1
     1  C   -0.004856
     2  C    0.004856
 Electronic spatial extent (au):  <R**2>=            109.9905
 Charge=              0.0000 electrons
 Dipole moment (field-independent basis, Debye):
    X=             -0.0220    Y=             -0.0102    Z=              0.0218  Tot=              0.0326
 Quadrupole moment (field-independent basis, Debye-Ang):
   XX=            -15.5299   YY=            -14.5872   ZZ=            -14.8341
   XY=              0.0235   XZ=              0.0409   YZ=              0.0427
 Traceless Quadrupole moment (field-independent basis, Debye-Ang):
   XX=             -0.5462   YY=              0.3965   ZZ=              0.1496
   XY=              0.0235   XZ=              0.0409   YZ=              0.0427
 Octapole moment (field-independent basis, Debye-Ang**2):
  XXX=             -0.1579  YYY=             -0.0824  ZZZ=              0.0691  XYY=             -0.0232
  XXY=             -0.0625  XXZ=              0.1013  XZZ=             -0.0761  YZZ=              0.0138
  YYZ=             -0.0281  XYZ=              0.0926
 Hexadecapole moment (field-independent basis, Debye-Ang**3):
 XXXX=            -93.2268 YYYY=            -29.7944 ZZZZ=            -28.7918 XXXY=              0.0880
 XXXZ=              0.1342 YYYX=              0.6942 YYYZ=              0.1338 ZZZX=              1.0552
 ZZZY=              0.0625 XXYY=            -19.1245 XXZZ=            -19.4265 YYZZ=             -9.7743
 XXYZ=             -0.0072 YYXZ=             -0.9544 ZZXY=             -0.8360
 N-N= 4.190778253516D+01 E-N=-2.675513567990D+02  KE= 7.888328331933D+01
 1\1\GINC-NODE87\SP\RB3LYP\6-31G(d)\C2H6\YANZ\26-Dec-2024\0\\# b3lyp/6-
 31g(d)\\tmpdir/M3_ref_32.gjf\\0,1\C,0,1.175805,0.813726,0.033333\C,0,-
 0.093708,0.006563,-0.233217\H,0,-0.194808,-0.16538,-1.311007\H,0,2.107
 6179,0.27342833,-0.37710465\H,0,1.131503,1.778183,-0.492214\H,0,1.2714
 13,1.023758,1.111676\H,0,-1.00631253,0.51917636,0.1549437\H,0,0.00093,
 -0.974522,0.244205\\Version=ES64L-G16RevA.03\State=1-A\HF=-79.8273353\
 RMSD=8.735e-10\Dipole=-0.0113874,0.0031608,-0.0049676\Quadrupole=-0.21
 15633,0.0128941,0.1986692,-0.2545805,-0.1651609,0.0068414\PG=C01 [X(C2
 H6)]\\@


 Experience is what you get when you don't get what you want.
 -- Dan Stanford
 Job cpu time:       0 days  0 hours  0 minutes  9.1 seconds.
 Elapsed time:       0 days  0 hours  0 minutes  2.4 seconds.
 File lengths (MBytes):  RWF=      6 Int=      0 D2E=      0 Chk=      1 Scr=      1
 Normal termination of Gaussian 16 at Thu Dec 26 10:46:03 2024.
